# vtk DataFile Version 5.0
Example 3D regular grid VTK file.
ASCII
DATASET UNSTRUCTURED_GRID
POINTS 90601 float
0 0 0
0 10 0
0 20 0
0 30 0
0 40 0
0 50 0
0 60 0
0 70 0
0 80 0
0 90 0
0 100 0
0 110 0
0 120 0
0 130 0
0 140 0
0 150 0
0 160 0
0 170 0
0 180 0
0 190 0
0 200 0
0 210 0
0 220 0
0 230 0
0 240 0
0 250 0
0 260 0
0 270 0
0 280 0
0 290 0
0 300 0
0 310 0
0 320 0
0 330 0
0 340 0
0 350 0
0 360 0
0 370 0
0 380 0
0 390 0
0 400 0
0 410 0
0 420 0
0 430 0
0 440 0
0 450 0
0 460 0
0 470 0
0 480 0
0 490 0
0 500 0
0 510 0
0 520 0
0 530 0
0 540 0
0 550 0
0 560 0
0 570 0
0 580 0
0 590 0
0 600 0
0 610 0
0 620 0
0 630 0
0 640 0
0 650 0
0 660 0
0 670 0
0 680 0
0 690 0
0 700 0
0 710 0
0 720 0
0 730 0
0 740 0
0 750 0
0 760 0
0 770 0
0 780 0
0 790 0
0 800 0
0 810 0
0 820 0
0 830 0
0 840 0
0 850 0
0 860 0
0 870 0
0 880 0
0 890 0
0 900 0
0 910 0
0 920 0
0 930 0
0 940 0
0 950 0
0 960 0
0 970 0
0 980 0
0 990 0
0 1000 0
0 1010 0
0 1020 0
0 1030 0
0 1040 0
0 1050 0
0 1060 0
0 1070 0
0 1080 0
0 1090 0
0 1100 0
0 1110 0
0 1120 0
0 1130 0
0 1140 0
0 1150 0
0 1160 0
0 1170 0
0 1180 0
0 1190 0
0 1200 0
0 1210 0
0 1220 0
0 1230 0
0 1240 0
0 1250 0
0 1260 0
0 1270 0
0 1280 0
0 1290 0
0 1300 0
0 1310 0
0 1320 0
0 1330 0
0 1340 0
0 1350 0
0 1360 0
0 1370 0
0 1380 0
0 1390 0
0 1400 0
0 1410 0
0 1420 0
0 1430 0
0 1440 0
0 1450 0
0 1460 0
0 1470 0
0 1480 0
0 1490 0
0 1500 0
0 1510 0
0 1520 0
0 1530 0
0 1540 0
0 1550 0
0 1560 0
0 1570 0
0 1580 0
0 1590 0
0 1600 0
0 1610 0
0 1620 0
0 1630 0
0 1640 0
0 1650 0
0 1660 0
0 1670 0
0 1680 0
0 1690 0
0 1700 0
0 1710 0
0 1720 0
0 1730 0
0 1740 0
0 1750 0
0 1760 0
0 1770 0
0 1780 0
0 1790 0
0 1800 0
0 1810 0
0 1820 0
0 1830 0
0 1840 0
0 1850 0
0 1860 0
0 1870 0
0 1880 0
0 1890 0
0 1900 0
0 1910 0
0 1920 0
0 1930 0
0 1940 0
0 1950 0
0 1960 0
0 1970 0
0 1980 0
0 1990 0
0 2000 0
0 2010 0
0 2020 0
0 2030 0
0 2040 0
0 2050 0
0 2060 0
0 2070 0
0 2080 0
0 2090 0
0 2100 0
0 2110 0
0 2120 0
0 2130 0
0 2140 0
0 2150 0
0 2160 0
0 2170 0
0 2180 0
0 2190 0
0 2200 0
0 2210 0
0 2220 0
0 2230 0
0 2240 0
0 2250 0
0 2260 0
0 2270 0
0 2280 0
0 2290 0
0 2300 0
0 2310 0
0 2320 0
0 2330 0
0 2340 0
0 2350 0
0 2360 0
0 2370 0
0 2380 0
0 2390 0
0 2400 0
0 2410 0
0 2420 0
0 2430 0
0 2440 0
0 2450 0
0 2460 0
0 2470 0
0 2480 0
0 2490 0
0 2500 0
0 2510 0
0 2520 0
0 2530 0
0 2540 0
0 2550 0
0 2560 0
0 2570 0
0 2580 0
0 2590 0
0 2600 0
0 2610 0
0 2620 0
0 2630 0
0 2640 0
0 2650 0
0 2660 0
0 2670 0
0 2680 0
0 2690 0
0 2700 0
0 2710 0
0 2720 0
0 2730 0
0 2740 0
0 2750 0
0 2760 0
0 2770 0
0 2780 0
0 2790 0
0 2800 0
0 2810 0
0 2820 0
0 2830 0
0 2840 0
0 2850 0
0 2860 0
0 2870 0
0 2880 0
0 2890 0
0 2900 0
0 2910 0
0 2920 0
0 2930 0
0 2940 0
0 2950 0
0 2960 0
0 2970 0
0 2980 0
0 2990 0
0 3000 0
10 0 0
10 10 0
10 20 0
10 30 0
10 40 0
10 50 0
10 60 0
10 70 0
10 80 0
10 90 0
10 100 0
10 110 0
10 120 0
10 130 0
10 140 0
10 150 0
10 160 0
10 170 0
10 180 0
10 190 0
10 200 0
10 210 0
10 220 0
10 230 0
10 240 0
10 250 0
10 260 0
10 270 0
10 280 0
10 290 0
10 300 0
10 310 0
10 320 0
10 330 0
10 340 0
10 350 0
10 360 0
10 370 0
10 380 0
10 390 0
10 400 0
10 410 0
10 420 0
10 430 0
10 440 0
10 450 0
10 460 0
10 470 0
10 480 0
10 490 0
10 500 0
10 510 0
10 520 0
10 530 0
10 540 0
10 550 0
10 560 0
10 570 0
10 580 0
10 590 0
10 600 0
10 610 0
10 620 0
10 630 0
10 640 0
10 650 0
10 660 0
10 670 0
10 680 0
10 690 0
10 700 0
10 710 0
10 720 0
10 730 0
10 740 0
10 750 0
10 760 0
10 770 0
10 780 0
10 790 0
10 800 0
10 810 0
10 820 0
10 830 0
10 840 0
10 850 0
10 860 0
10 870 0
10 880 0
10 890 0
10 900 0
10 910 0
10 920 0
10 930 0
10 940 0
10 950 0
10 960 0
10 970 0
10 980 0
10 990 0
10 1000 0
10 1010 0
10 1020 0
10 1030 0
10 1040 0
10 1050 0
10 1060 0
10 1070 0
10 1080 0
10 1090 0
10 1100 0
10 1110 0
10 1120 0
10 1130 0
10 1140 0
10 1150 0
10 1160 0
10 1170 0
10 1180 0
10 1190 0
10 1200 0
10 1210 0
10 1220 0
10 1230 0
10 1240 0
10 1250 0
10 1260 0
10 1270 0
10 1280 0
10 1290 0
10 1300 0
10 1310 0
10 1320 0
10 1330 0
10 1340 0
10 1350 0
10 1360 0
10 1370 0
10 1380 0
10 1390 0
10 1400 0
10 1410 0
10 1420 0
10 1430 0
10 1440 0
10 1450 0
10 1460 0
10 1470 0
10 1480 0
10 1490 0
10 1500 0
10 1510 0
10 1520 0
10 1530 0
10 1540 0
10 1550 0
10 1560 0
10 1570 0
10 1580 0
10 1590 0
10 1600 0
10 1610 0
10 1620 0
10 1630 0
10 1640 0
10 1650 0
10 1660 0
10 1670 0
10 1680 0
10 1690 0
10 1700 0
10 1710 0
10 1720 0
10 1730 0
10 1740 0
10 1750 0
10 1760 0
10 1770 0
10 1780 0
10 1790 0
10 1800 0
10 1810 0
10 1820 0
10 1830 0
10 1840 0
10 1850 0
10 1860 0
10 1870 0
10 1880 0
10 1890 0
10 1900 0
10 1910 0
10 1920 0
10 1930 0
10 1940 0
10 1950 0
10 1960 0
10 1970 0
10 1980 0
10 1990 0
10 2000 0
10 2010 0
10 2020 0
10 2030 0
10 2040 0
10 2050 0
10 2060 0
10 2070 0
10 2080 0
10 2090 0
10 2100 0
10 2110 0
10 2120 0
10 2130 0
10 2140 0
10 2150 0
10 2160 0
10 2170 0
10 2180 0
10 2190 0
10 2200 0
10 2210 0
10 2220 0
10 2230 0
10 2240 0
10 2250 0
10 2260 0
10 2270 0
10 2280 0
10 2290 0
10 2300 0
10 2310 0
10 2320 0
10 2330 0
10 2340 0
10 2350 0
10 2360 0
10 2370 0
10 2380 0
10 2390 0
10 2400 0
10 2410 0
10 2420 0
10 2430 0
10 2440 0
10 2450 0
10 2460 0
10 2470 0
10 2480 0
10 2490 0
10 2500 0
10 2510 0
10 2520 0
10 2530 0
10 2540 0
10 2550 0
10 2560 0
10 2570 0
10 2580 0
10 2590 0
10 2600 0
10 2610 0
10 2620 0
10 2630 0
10 2640 0
10 2650 0
10 2660 0
10 2670 0
10 2680 0
10 2690 0
10 2700 0
10 2710 0
10 2720 0
10 2730 0
10 2740 0
10 2750 0
10 2760 0
10 2770 0
10 2780 0
10 2790 0
10 2800 0
10 2810 0
10 2820 0
10 2830 0
10 2840 0
10 2850 0
10 2860 0
10 2870 0
10 2880 0
10 2890 0
10 2900 0
10 2910 0
10 2920 0
10 2930 0
10 2940 0
10 2950 0
10 2960 0
10 2970 0
10 2980 0
10 2990 0
10 3000 0
20 0 0
20 10 0
20 20 0
20 30 0
20 40 0
20 50 0
20 60 0
20 70 0
20 80 0
20 90 0
20 100 0
20 110 0
20 120 0
20 130 0
20 140 0
20 150 0
20 160 0
20 170 0
20 180 0
20 190 0
20 200 0
20 210 0
20 220 0
20 230 0
20 240 0
20 250 0
20 260 0
20 270 0
20 280 0
20 290 0
20 300 0
20 310 0
20 320 0
20 330 0
20 340 0
20 350 0
20 360 0
20 370 0
20 380 0
20 390 0
20 400 0
20 410 0
20 420 0
20 430 0
20 440 0
20 450 0
20 460 0
20 470 0
20 480 0
20 490 0
20 500 0
20 510 0
20 520 0
20 530 0
20 540 0
20 550 0
20 560 0
20 570 0
20 580 0
20 590 0
20 600 0
20 610 0
20 620 0
20 630 0
20 640 0
20 650 0
20 660 0
20 670 0
20 680 0
20 690 0
20 700 0
20 710 0
20 720 0
20 730 0
20 740 0
20 750 0
20 760 0
20 770 0
20 780 0
20 790 0
20 800 0
20 810 0
20 820 0
20 830 0
20 840 0
20 850 0
20 860 0
20 870 0
20 880 0
20 890 0
20 900 0
20 910 0
20 920 0
20 930 0
20 940 0
20 950 0
20 960 0
20 970 0
20 980 0
20 990 0
20 1000 0
20 1010 0
20 1020 0
20 1030 0
20 1040 0
20 1050 0
20 1060 0
20 1070 0
20 1080 0
20 1090 0
20 1100 0
20 1110 0
20 1120 0
20 1130 0
20 1140 0
20 1150 0
20 1160 0
20 1170 0
20 1180 0
20 1190 0
20 1200 0
20 1210 0
20 1220 0
20 1230 0
20 1240 0
20 1250 0
20 1260 0
20 1270 0
20 1280 0
20 1290 0
20 1300 0
20 1310 0
20 1320 0
20 1330 0
20 1340 0
20 1350 0
20 1360 0
20 1370 0
20 1380 0
20 1390 0
20 1400 0
20 1410 0
20 1420 0
20 1430 0
20 1440 0
20 1450 0
20 1460 0
20 1470 0
20 1480 0
20 1490 0
20 1500 0
20 1510 0
20 1520 0
20 1530 0
20 1540 0
20 1550 0
20 1560 0
20 1570 0
20 1580 0
20 1590 0
20 1600 0
20 1610 0
20 1620 0
20 1630 0
20 1640 0
20 1650 0
20 1660 0
20 1670 0
20 1680 0
20 1690 0
20 1700 0
20 1710 0
20 1720 0
20 1730 0
20 1740 0
20 1750 0
20 1760 0
20 1770 0
20 1780 0
20 1790 0
20 1800 0
20 1810 0
20 1820 0
20 1830 0
20 1840 0
20 1850 0
20 1860 0
20 1870 0
20 1880 0
20 1890 0
20 1900 0
20 1910 0
20 1920 0
20 1930 0
20 1940 0
20 1950 0
20 1960 0
20 1970 0
20 1980 0
20 1990 0
20 2000 0
20 2010 0
20 2020 0
20 2030 0
20 2040 0
20 2050 0
20 2060 0
20 2070 0
20 2080 0
20 2090 0
20 2100 0
20 2110 0
20 2120 0
20 2130 0
20 2140 0
20 2150 0
20 2160 0
20 2170 0
20 2180 0
20 2190 0
20 2200 0
20 2210 0
20 2220 0
20 2230 0
20 2240 0
20 2250 0
20 2260 0
20 2270 0
20 2280 0
20 2290 0
20 2300 0
20 2310 0
20 2320 0
20 2330 0
20 2340 0
20 2350 0
20 2360 0
20 2370 0
20 2380 0
20 2390 0
20 2400 0
20 2410 0
20 2420 0
20 2430 0
20 2440 0
20 2450 0
20 2460 0
20 2470 0
20 2480 0
20 2490 0
20 2500 0
20 2510 0
20 2520 0
20 2530 0
20 2540 0
20 2550 0
20 2560 0
20 2570 0
20 2580 0
20 2590 0
20 2600 0
20 2610 0
20 2620 0
20 2630 0
20 2640 0
20 2650 0
20 2660 0
20 2670 0
20 2680 0
20 2690 0
20 2700 0
20 2710 0
20 2720 0
20 2730 0
20 2740 0
20 2750 0
20 2760 0
20 2770 0
20 2780 0
20 2790 0
20 2800 0
20 2810 0
20 2820 0
20 2830 0
20 2840 0
20 2850 0
20 2860 0
20 2870 0
20 2880 0
20 2890 0
20 2900 0
20 2910 0
20 2920 0
20 2930 0
20 2940 0
20 2950 0
20 2960 0
20 2970 0
20 2980 0
20 2990 0
20 3000 0
30 0 0
30 10 0
30 20 0
30 30 0
30 40 0
30 50 0
30 60 0
30 70 0
30 80 0
30 90 0
30 100 0
30 110 0
30 120 0
30 130 0
30 140 0
30 150 0
30 160 0
30 170 0
30 180 0
30 190 0
30 200 0
30 210 0
30 220 0
30 230 0
30 240 0
30 250 0
30 260 0
30 270 0
30 280 0
30 290 0
30 300 0
30 310 0
30 320 0
30 330 0
30 340 0
30 350 0
30 360 0
30 370 0
30 380 0
30 390 0
30 400 0
30 410 0
30 420 0
30 430 0
30 440 0
30 450 0
30 460 0
30 470 0
30 480 0
30 490 0
30 500 0
30 510 0
30 520 0
30 530 0
30 540 0
30 550 0
30 560 0
30 570 0
30 580 0
30 590 0
30 600 0
30 610 0
30 620 0
30 630 0
30 640 0
30 650 0
30 660 0
30 670 0
30 680 0
30 690 0
30 700 0
30 710 0
30 720 0
30 730 0
30 740 0
30 750 0
30 760 0
30 770 0
30 780 0
30 790 0
30 800 0
30 810 0
30 820 0
30 830 0
30 840 0
30 850 0
30 860 0
30 870 0
30 880 0
30 890 0
30 900 0
30 910 0
30 920 0
30 930 0
30 940 0
30 950 0
30 960 0
30 970 0
30 980 0
30 990 0
30 1000 0
30 1010 0
30 1020 0
30 1030 0
30 1040 0
30 1050 0
30 1060 0
30 1070 0
30 1080 0
30 1090 0
30 1100 0
30 1110 0
30 1120 0
30 1130 0
30 1140 0
30 1150 0
30 1160 0
30 1170 0
30 1180 0
30 1190 0
30 1200 0
30 1210 0
30 1220 0
30 1230 0
30 1240 0
30 1250 0
30 1260 0
30 1270 0
30 1280 0
30 1290 0
30 1300 0
30 1310 0
30 1320 0
30 1330 0
30 1340 0
30 1350 0
30 1360 0
30 1370 0
30 1380 0
30 1390 0
30 1400 0
30 1410 0
30 1420 0
30 1430 0
30 1440 0
30 1450 0
30 1460 0
30 1470 0
30 1480 0
30 1490 0
30 1500 0
30 1510 0
30 1520 0
30 1530 0
30 1540 0
30 1550 0
30 1560 0
30 1570 0
30 1580 0
30 1590 0
[...]
POINT_DATA 90601
SCALARS P float
LOOKUP_TABLE default
34.0538
34.0538
34.0907
34.1788
34.3267
34.5335
34.7866
35.0652
35.3450
35.6029
35.8207
35.9859
36.0917
36.1360
36.1201
36.0473
35.9226
35.7512
35.5386
35.2900
35.0101
34.7033
34.3734
34.0238
33.6573
33.2765
32.8834
32.4800
32.0677
31.6478
31.2215
30.7897
30.3532
29.9127
29.4687
29.0218
28.5723
28.1205
27.6668
27.2114
26.7545
26.2963
25.8368
25.3763
24.9147
24.4523
23.9889
23.5248
23.0599
22.5943
22.1279
21.6609
21.1932
20.7250
20.2561
19.7866
19.3167
18.8463
18.3755
17.9044
17.4331
16.9618
16.4905
16.0194
15.5488
15.0787
14.6096
14.1416
13.6750
13.2102
12.7476
12.2874
11.8302
11.3763
10.9263
10.4805
10.0396
9.6041
9.1744
8.7511
8.3347
7.9259
7.5251
7.1329
6.7498
6.3762
6.0127
5.6597
5.3176
4.9867
4.6675
4.3600
4.0647
3.7817
3.5110
3.2529
3.0072
2.7741
2.5534
2.3450
2.1487
1.9643
1.7915
1.6301
1.4797
1.3399
1.2103
1.0906
0.9803
0.8790
0.7861
0.7012
0.6239
0.5537
0.4901
0.4326
0.3809
0.3345
0.2929
0.2558
0.2228
0.1936
0.1677
0.1448
0.1248
0.1072
0.0918
0.0784
0.0668
0.0568
0.0481
0.0406
0.0342
0.0287
0.0240
0.0201
0.0167
0.0139
0.0115
0.0095
0.0078
0.0064
0.0052
0.0043
0.0035
0.0028
0.0023
0.0018
0.0015
0.0012
0.0009
0.0008
0.0006
0.0005
0.0004
0.0003
0.0002
0.0002
0.0001
0.0001
0.0001
0.0001
0.0001
0.0000
0.0000
0.0000
0.0000
0.0000
0.0000
0.0000
0.0000
0.0000
0.0000
0.0000
0.0000
0.0000
0.0000
0.0000
0.0000
0.0000
0.0000
0.0000
0.0000
0.0000
0.0000
0.0000
0.0000
0.0000
0.0000
0.0000
0.0000
0.0000
0.0000
0.0000
0.0000
0.0000
0.0000
0.0000
0.0000
0.0000
0.0000
0.0000
0.0000
0.0000
0.0000
0.0000
0.0000
0.0000
0.0000
0.0000
0.0000
0.0000
0.0000
0.0000
0.0000
0.0000
0.0000
0.0000
0.0000
0.0000
0.0000
0.0000
0.0000
0.0000
0.0000
0.0000
0.0000
0.0000
0.0000
0.0000
0.0000
0.0000
0.0000
0.0000
0.0000
0.0000
0.0000
0.0000
0.0000
0.0000
0.0000
0.0000
0.0000
0.0000
0.0000
0.0000
0.0000
0.0000
0.0000
0.0000
0.0000
0.0000
0.0000
0.0000
0.0000
0.0000
0.0000
0.0000
0.0000
0.0000
0.0000
0.0000
0.0000
0.0000
0.0000
0.0000
0.0000
0.0000
0.0000
0.0000
0.0000
0.0000
0.0000
0.0000
0.0000
0.0000
0.0000
0.0000
0.0000
0.0000
0.0000
0.0000
0.0000
0.0000
0.0000
0.0000
0.0000
0.0000
0.0000
0.0000
0.0000
0.0000
0.0000
0.0000
0.0000
0.0000
0.0000
0.0000
0.0000
0.0000
0.0000
34.0538
34.0538
34.0907
34.1788
34.3267
34.5335
34.7866
35.0652
35.3450
35.6029
35.8207
35.9859
36.0917
36.1360
36.1201
36.0473
35.9226
35.7512
35.5386
35.2900
35.0101
34.7033
34.3734
34.0238
33.6573
33.2765
32.8834
32.4800
32.0677
31.6478
31.2215
30.7897
30.3532
29.9127
29.4687
29.0218
28.5723
28.1205
27.6668
27.2114
26.7545
26.2963
25.8368
25.3763
24.9147
24.4523
23.9889
23.5248
23.0599
22.5943
22.1279
21.6609
21.1932
20.7250
20.2561
19.7866
19.3167
18.8463
18.3755
17.9044
17.4331
16.9618
16.4905
16.0194
15.5488
15.0787
14.6096
14.1416
13.6750
13.2102
12.7476
12.2874
11.8302
11.3763
10.9263
10.4805
10.0396
9.6041
9.1744
8.7511
8.3347
7.9259
7.5251
7.1329
6.7498
6.3762
6.0127
5.6597
5.3176
4.9867
4.6675
4.3600
4.0647
3.7817
3.5110
3.2529
3.0072
2.7741
2.5534
2.3450
2.1487
1.9643
1.7915
1.6301
1.4797
1.3399
1.2103
1.0906
0.9803
0.8790
0.7861
0.7012
0.6239
0.5537
0.4901
0.4326
0.3809
0.3345
0.2929
0.2558
0.2228
0.1936
0.1677
0.1448
0.1248
0.1072
0.0918
0.0784
0.0668
0.0568
0.0481
0.0406
0.0342
0.0287
0.0240
0.0201
0.0167
0.0139
0.0115
0.0095
0.0078
0.0064
0.0052
0.0043
0.0035
0.0028
0.0023
0.0018
0.0015
0.0012
0.0009
0.0008
0.0006
0.0005
0.0004
0.0003
0.0002
0.0002
0.0001
0.0001
0.0001
0.0001
0.0001
0.0000
0.0000
0.0000
0.0000
0.0000
0.0000
0.0000
0.0000
0.0000
0.0000
0.0000
0.0000
0.0000
0.0000
0.0000
0.0000
0.0000
0.0000
0.0000
0.0000
0.0000
0.0000
0.0000
0.0000
0.0000
0.0000
0.0000
0.0000
0.0000
0.0000
0.0000
0.0000
0.0000
0.0000
0.0000
0.0000
0.0000
0.0000
0.0000
0.0000
0.0000
0.0000
0.0000
0.0000
0.0000
0.0000
0.0000
0.0000
0.0000
0.0000
0.0000
0.0000
0.0000
0.0000
0.0000
0.0000
0.0000
0.0000
0.0000
0.0000
0.0000
0.0000
0.0000
0.0000
0.0000
0.0000
0.0000
0.0000
0.0000
0.0000
0.0000
0.0000
0.0000
0.0000
0.0000
0.0000
0.0000
0.0000
0.0000
0.0000
0.0000
0.0000
0.0000
0.0000
0.0000
0.0000
0.0000
0.0000
0.0000
0.0000
0.0000
0.0000
0.0000
0.0000
0.0000
0.0000
0.0000
0.0000
0.0000
0.0000
0.0000
0.0000
0.0000
0.0000
0.0000
0.0000
0.0000
0.0000
0.0000
0.0000
0.0000
0.0000
0.0000
0.0000
0.0000
0.0000
0.0000
0.0000
0.0000
0.0000
0.0000
0.0000
0.0000
0.0000
0.0000
0.0000
0.0000
0.0000
0.0000
0.0000
0.0000
0.0000
0.0000
0.0000
0.0000
0.0000
0.0000
0.0000
34.3450
34.3450
34.3938
34.5094
34.7008
34.9614
35.2683
35.5893
35.8928
36.1536
36.3555
36.4903
36.5563
36.5558
36.4937
36.3761
36.2092
35.9995
35.7525
35.4736
35.1673
34.8376
34.4880
34.1216
33.7407
33.3476
32.9441
32.5318
32.1119
31.6856
31.2538
30.8174
30.3769
29.9330
29.4862
29.0368
28.5852
28.1316
27.6764
27.2196
26.7616
26.3024
25.8421
25.3808
24.9187
24.4557
23.9919
23.5274
23.0621
22.5962
22.1296
21.6624
21.1945
20.7261
20.2570
19.7875
19.3174
18.8469
18.3760
17.9049
17.4335
16.9621
16.4908
16.0197
15.5490
15.0790
14.6098
14.1418
13.6752
13.2104
12.7477
12.2875
11.8303
11.3764
10.9263
10.4806
10.0397
9.6041
9.1744
8.7511
8.3348
7.9259
7.5252
7.1329
6.7498
6.3763
6.0128
5.6597
5.3176
4.9867
4.6675
4.3600
4.0647
3.7817
3.5110
3.2529
3.0073
2.7741
2.5534
2.3450
2.1487
1.9643
1.7915
1.6301
1.4797
1.3399
1.2103
1.0906
0.9803
0.8790
0.7861
0.7012
0.6239
0.5537
0.4901
0.4326
0.3809
0.3345
0.2929
0.2558
0.2228
0.1936
0.1677
0.1448
0.1248
0.1072
0.0918
0.0784
0.0668
0.0568
0.0481
0.0406
0.0342
0.0287
0.0240
0.0201
0.0167
0.0139
0.0115
0.0095
0.0078
0.0064
0.0052
0.0043
0.0035
0.0028
0.0023
0.0018
0.0015
0.0012
0.0009
0.0008
0.0006
0.0005
0.0004
0.0003
0.0002
0.0002
0.0001
0.0001
0.0001
0.0001
0.0001
0.0000
0.0000
0.0000
0.0000
0.0000
0.0000
0.0000
0.0000
0.0000
0.0000
0.0000
0.0000
0.0000
0.0000
0.0000
0.0000
0.0000
0.0000
0.0000
0.0000
0.0000
0.0000
0.0000
0.0000
0.0000
0.0000
0.0000
0.0000
0.0000
0.0000
0.0000
0.0000
0.0000
0.0000
0.0000
0.0000
0.0000
0.0000
0.0000
0.0000
0.0000
0.0000
0.0000
0.0000
0.0000
0.0000
0.0000
0.0000
0.0000
0.0000
0.0000
0.0000
0.0000
0.0000
0.0000
0.0000
0.0000
0.0000
0.0000
0.0000
0.0000
0.0000
0.0000
0.0000
0.0000
0.0000
0.0000
0.0000
0.0000
0.0000
0.0000
0.0000
0.0000
0.0000
0.0000
0.0000
0.0000
0.0000
0.0000
0.0000
0.0000
0.0000
0.0000
0.0000
0.0000
0.0000
0.0000
0.0000
0.0000
0.0000
0.0000
0.0000
0.0000
0.0000
0.0000
0.0000
0.0000
0.0000
0.0000
0.0000
0.0000
0.0000
0.0000
0.0000
0.0000
0.0000
0.0000
0.0000
0.0000
0.0000
0.0000
0.0000
0.0000
0.0000
0.0000
0.0000
0.0000
0.0000
0.0000
0.0000
0.0000
0.0000
0.0000
0.0000
0.0000
0.0000
0.0000
0.0000
0.0000
0.0000
0.0000
0.0000
0.0000
0.0000
0.0000
0.0000
0.0000
0.0000
35.1216
35.1216
35.2070
35.4078
35.7335
36.1581
36.6215
37.0567
37.4134
37.6652
37.8063
37.8436
37.7905
37.6617
37.4714
37.2314
36.9517
36.6402
36.3031
35.9453
35.5705
35.1818
34.7817
34.3719
33.9542
33.5297
33.0994
32.6644
32.2252
31.7824
31.3367
30.8883
30.4377
29.9852
29.5309
29.0752
28.6182
28.1601
27.7009
27.2408
26.7798
26.3181
25.8557
25.3926
24.9288
24.4645
23.9995
23.5340
23.0679
22.6012
22.1339
21.6661
21.1978
20.7289
20.2595
19.7896
19.3193
18.8485
18.3775
17.9061
17.4346
16.9631
16.4916
16.0204
15.5496
15.0795
14.6103
14.1422
13.6755
13.2107
12.7480
12.2878
11.8305
11.3766
10.9265
10.4807
10.0398
9.6042
9.1745
8.7512
8.3348
7.9260
7.5252
7.1330
6.7499
6.3763
6.0128
5.6598
5.3176
4.9868
4.6675
4.3601
4.0647
3.7817
3.5110
3.2529
3.0073
2.7741
2.5534
2.3450
2.1487
1.9643
1.7915
1.6301
1.4797
1.3399
1.2103
1.0906
0.9803
0.8790
0.7861
0.7012
0.6239
0.5537
0.4901
0.4326
0.3809
0.3345
0.2929
0.2558
0.2228
0.1936
0.1677
0.1448
0.1248
0.1072
0.0918
0.0784
0.0668
0.0568
0.0481
0.0406
0.0342
0.0287
0.0240
0.0201
0.0167
0.0139
0.0115
0.0095
0.0078
0.0064
0.0052
0.0043
0.0035
0.0028
0.0023
0.0018
0.0015
0.0012
0.0009
0.0008
0.0006
0.0005
0.0004
0.0003
0.0002
0.0002
0.0001
0.0001
0.0001
0.0001
0.0001
0.0000
0.0000
0.0000
0.0000
0.0000
0.0000
0.0000
0.0000
0.0000
0.0000
0.0000
0.0000
0.0000
0.0000
0.0000
0.0000
0.0000
0.0000
0.0000
0.0000
0.0000
0.0000
0.0000
0.0000
0.0000
0.0000
0.0000
0.0000
0.0000
0.0000
0.0000
0.0000
0.0000
0.0000
0.0000
0.0000
0.0000
0.0000
0.0000
0.0000
0.0000
0.0000
0.0000
0.0000
0.0000
0.0000
0.0000
0.0000
0.0000
0.0000
0.0000
0.0000
0.0000
0.0000
0.0000
0.0000
0.0000
0.0000
0.0000
0.0000
0.0000
0.0000
0.0000
0.0000
0.0000
0.0000
0.0000
0.0000
0.0000
0.0000
0.0000
0.0000
0.0000
0.0000
0.0000
0.0000
0.0000
0.0000
0.0000
0.0000
0.0000
0.0000
0.0000
0.0000
0.0000
0.0000
0.0000
0.0000
0.0000
0.0000
0.0000
0.0000
0.0000
0.0000
0.0000
0.0000
0.0000
0.0000
0.0000
0.0000
0.0000
0.0000
0.0000
0.0000
0.0000
0.0000
0.0000
0.0000
0.0000
0.0000
0.0000
0.0000
0.0000
0.0000
0.0000
0.0000
0.0000
0.0000
0.0000
0.0000
0.0000
0.0000
0.0000
0.0000
0.0000
0.0000
0.0000
0.0000
0.0000
0.0000
0.0000
0.0000
0.0000
0.0000
0.0000
0.0000
0.0000
0.0000
36.6901
36.6901
36.8684
37.2869
37.9561
38.7905
39.6155
40.2762
40.6945
40.8627
40.8146
40.5990
40.2637
39.8485
39.3835
38.8897
38.3814
37.8676
37.3536
36.8426
36.3360
35.8344
35.3378
34.8459
34.3582
33.8742
33.3934
32.9154
32.4397
31.9659
31.4938
31.0229
30.5531
30.0842
29.6160
29.1484
28.6812
28.2143
27.7476
27.2811
26.8146
26.3482
25.8817
25.4151
24.9483
24.4813
24.0141
23.5467
23.0789
22.6107
22.1422
21.6734
21.2041
20.7344
20.2643
19.7938
19.3229
18.8517
18.3802
17.9085
17.4367
16.9649
16.4932
16.0218
15.5509
15.0806
14.6112
14.1430
13.6763
13.2113
12.7485
12.2882
11.8309
11.3769
10.9268
10.4810
10.0401
9.6044
9.1747
8.7514
8.3350
7.9261
7.5253
7.1331
6.7499
6.3764
6.0129
5.6598
5.3177
4.9868
4.6675
4.3601
4.0648
3.7817
3.5111
3.2529
3.0073
2.7741
2.5534
2.3450
2.1487
1.9643
1.7915
1.6301
1.4797
1.3399
1.2103
1.0906
0.9803
0.8790
0.7861
0.7012
0.6239
0.5537
0.4901
0.4326
0.3809
0.3345
0.2929
0.2558
0.2228
0.1936
0.1677
0.1448
0.1248
0.1072
0.0918
0.0784
0.0668
0.0568
0.0481
0.0406
0.0342
0.0287
0.0240
0.0201
0.0167
0.0139
0.0115
0.0095
0.0078
0.0064
0.0052
0.0043
0.0035
0.0028
0.0023
0.0018
0.0015
0.0012
0.0009
0.0008
0.0006
0.0005
0.0004
0.0003
0.0002
0.0002
0.0001
0.0001
0.0001
0.0001
0.0001
0.0000
0.0000
0.0000
0.0000
0.0000
0.0000
0.0000
0.0000
0.0000
0.0000
0.0000
0.0000
0.0000
0.0000
0.0000
0.0000
0.0000
0.0000
0.0000
0.0000
0.0000
0.0000
0.0000
0.0000
0.0000
0.0000
0.0000
0.0000
0.0000
0.0000
0.0000
0.0000
0.0000
0.0000
0.0000
0.0000
0.0000
0.0000
0.0000
0.0000
0.0000
0.0000
0.0000
0.0000
0.0000
0.0000
0.0000
0.0000
0.0000
0.0000
0.0000
0.0000
0.0000
0.0000
0.0000
0.0000
0.0000
0.0000
0.0000
0.0000
0.0000
0.0000
0.0000
0.0000
0.0000
0.0000
0.0000
0.0000
0.0000
0.0000
0.0000
0.0000
0.0000
0.0000
0.0000
0.0000
0.0000
0.0000
0.0000
0.0000
0.0000
0.0000
0.0000
0.0000
0.0000
0.0000
0.0000
0.0000
0.0000
0.0000
0.0000
0.0000
0.0000
0.0000
0.0000
0.0000
0.0000
0.0000
0.0000
0.0000
0.0000
0.0000
0.0000
0.0000
0.0000
0.0000
0.0000
0.0000
0.0000
0.0000
0.0000
0.0000
0.0000
0.0000
0.0000
0.0000
0.0000
0.0000
0.0000
0.0000
0.0000
0.0000
0.0000
0.0000
0.0000
0.0000
0.0000
0.0000
0.0000
0.0000
0.0000
0.0000
0.0000
0.0000
0.0000
0.0000
0.0000
0.0000
39.5174
39.5174
39.9188
40.8682
42.3863
44.2121
45.8022
46.8099
47.1696
46.9846
46.4118
45.5980
44.6567
43.6661
42.6757
41.7143
40.7964
39.9277
39.1087
38.3367
37.6077
36.9168
36.2594
35.6310
35.0274
34.4451
33.8809
33.3319
32.7959
32.2708
31.7550
31.2469
30.7454
30.2494
29.7580
29.2706
28.7864
28.3050
27.8259
27.3486
26.8730
26.3986
25.9253
25.4529
24.9811
24.5097
24.0388
23.5680
23.0974
22.6269
22.1563
21.6856
21.2147
20.7436
20.2723
19.8008
19.3290
18.8570
18.3849
17.9126
17.4403
16.9680
16.4959
16.0242
15.5529
15.0824
14.6128
14.1444
13.6775
13.2124
12.7494
12.2891
11.8316
11.3776
10.9274
10.4815
10.0405
9.6048
9.1750
8.7516
8.3352
7.9264
7.5255
7.1333
6.7501
6.3765
6.0130
5.6599
5.3178
4.9869
4.6676
4.3602
4.0648
3.7818
3.5111
3.2529
3.0073
2.7742
2.5534
2.3450
2.1487
1.9643
1.7915
1.6301
1.4797
1.3399
1.2104
1.0906
0.9803
0.8790
0.7861
0.7012
0.6239
0.5537
0.4901
0.4326
0.3809
0.3345
0.2929
0.2558
0.2228
0.1936
0.1677
0.1448
0.1248
0.1072
0.0918
0.0784
0.0668
0.0568
0.0481
0.0406
0.0342
0.0287
0.0240
0.0201
0.0167
0.0139
0.0115
0.0095
0.0078
0.0064
0.0052
0.0043
0.0035
0.0028
0.0023
0.0018
0.0015
0.0012
0.0009
0.0008
0.0006
0.0005
0.0004
0.0003
0.0002
0.0002
0.0001
0.0001
0.0001
0.0001
0.0001
0.0000
0.0000
0.0000
0.0000
0.0000
0.0000
0.0000
0.0000
0.0000
0.0000
0.0000
0.0000
0.0000
0.0000
0.0000
0.0000
0.0000
0.0000
0.0000
0.0000
0.0000
0.0000
0.0000
0.0000
0.0000
0.0000
0.0000
0.0000
0.0000
0.0000
0.0000
0.0000
0.0000
0.0000
0.0000
0.0000
0.0000
0.0000
0.0000
0.0000
0.0000
0.0000
0.0000
0.0000
0.0000
0.0000
0.0000
0.0000
0.0000
0.0000
0.0000
0.0000
0.0000
0.0000
0.0000
0.0000
0.0000
0.0000
0.0000
0.0000
0.0000
0.0000
0.0000
0.0000
0.0000
0.0000
0.0000
0.0000
0.0000
0.0000
0.0000
0.0000
0.0000
0.0000
0.0000
0.0000
0.0000
0.0000
0.0000
0.0000
0.0000
0.0000
0.0000
0.0000
0.0000
0.0000
0.0000
0.0000
0.0000
0.0000
0.0000
0.0000
0.0000
0.0000
0.0000
0.0000
0.0000
0.0000
0.0000
0.0000
0.0000
0.0000
0.0000
0.0000
0.0000
0.0000
0.0000
0.0000
0.0000
0.0000
0.0000
0.0000
0.0000
0.0000
0.0000
0.0000
0.0000
0.0000
0.0000
0.0000
0.0000
0.0000
0.0000
0.0000
0.0000
0.0000
0.0000
0.0000
0.0000
0.0000
0.0000
0.0000
0.0000
0.0000
0.0000
0.0000
0.0000
0.0000
44.2707
44.2707
45.1901
47.4125
51.0431
55.3223
58.3987
59.6522
59.3508
58.0205
56.1309
54.0121
51.8678
49.8105
47.8949
46.1408
44.5488
43.1089
41.8069
40.6268
39.5530
38.5708
37.6671
36.8302
36.0501
35.3181
34.6269
33.9700
33.3423
32.7391
32.1567
31.5918
31.0418
30.5044
29.9775
29.4597
28.9495
28.4457
27.9474
27.4537
26.9639
26.4773
25.9934
25.5119
25.0322
24.5542
24.0773
23.6016
23.1266
22.6522
22.1783
21.7048
21.2314
20.7582
20.2850
19.8119
19.3387
18.8655
18.3922
17.9190
17.4459
16.9729
16.5002
16.0279
15.5562
15.0853
14.6153
14.1466
13.6794
13.2141
12.7509
12.2904
11.8328
11.3786
10.9283
10.4823
10.0412
9.6054
9.1755
8.7521
8.3357
7.9267
7.5258
7.1335
6.7503
6.3767
6.0132
5.6601
5.3179
4.9870
4.6677
4.3602
4.0649
3.7818
3.5112
3.2530
3.0074
2.7742
2.5535
2.3450
2.1487
1.9643
1.7915
1.6301
1.4797
1.3399
1.2104
1.0907
0.9803
0.8790
0.7861
0.7012
0.6239
0.5537
0.4901
0.4326
0.3809
0.3345
0.2929
0.2558
0.2228
0.1936
0.1677
0.1448
0.1248
0.1072
0.0918
0.0784
0.0668
0.0568
0.0481
0.0406
0.0342
0.0287
0.0240
0.0201
0.0167
0.0139
0.0115
0.0095
0.0078
0.0064
0.0052
0.0043
0.0035
0.0028
0.0023
0.0018
0.0015
0.0012
0.0009
0.0008
0.0006
0.0005
0.0004
0.0003
0.0002
0.0002
0.0001
0.0001
0.0001
0.0001
0.0001
0.0000
0.0000
0.0000
0.0000
0.0000
0.0000
0.0000
0.0000
0.0000
0.0000
0.0000
0.0000
0.0000
0.0000
0.0000
0.0000
0.0000
0.0000
0.0000
0.0000
0.0000
0.0000
0.0000
0.0000
0.0000
0.0000
0.0000
0.0000
0.0000
0.0000
0.0000
0.0000
0.0000
0.0000
0.0000
0.0000
0.0000
0.0000
0.0000
0.0000
0.0000
0.0000
0.0000
0.0000
0.0000
0.0000
0.0000
0.0000
0.0000
0.0000
0.0000
0.0000
0.0000
0.0000
0.0000
0.0000
0.0000
0.0000
0.0000
0.0000
0.0000
0.0000
0.0000
0.0000
0.0000
0.0000
0.0000
0.0000
0.0000
0.0000
0.0000
0.0000
0.0000
0.0000
0.0000
0.0000
0.0000
0.0000
0.0000
0.0000
0.0000
0.0000
0.0000
0.0000
0.0000
0.0000
0.0000
0.0000
0.0000
0.0000
0.0000
0.0000
0.0000
0.0000
0.0000
0.0000
0.0000
0.0000
0.0000
0.0000
0.0000
0.0000
0.0000
0.0000
0.0000
0.0000
0.0000
0.0000
0.0000
0.0000
0.0000
0.0000
0.0000
0.0000
0.0000
0.0000
0.0000
0.0000
0.0000
0.0000
0.0000
0.0000
0.0000
0.0000
0.0000
0.0000
0.0000
0.0000
0.0000
0.0000
0.0000
0.0000
0.0000
0.0000
0.0000
0.0000
0.0000
0.0000
51.7940
51.7940
53.8639
59.0758
68.0680
78.8453
84.2287
84.3449
81.2892
76.8067
71.9435
67.2316
62.9027
59.0315
55.6167
52.6234
50.0047
47.7118
45.6986
43.9238
42.3512
40.9497
39.6925
38.5571
37.5244
36.5784
35.7054
34.8940
34.1347
33.4194
32.7412
32.0946
31.4747
30.8773
30.2991
29.7373
29.1892
28.6529
28.1266
27.6088
27.0982
26.5937
26.0944
25.5995
25.1083
24.6202
24.1348
23.6515
23.1700
22.6901
22.2113
21.7335
21.2564
20.7800
20.3041
19.8285
19.3532
18.8782
18.4033
17.9287
17.4544
16.9804
16.5067
16.0336
15.5612
15.0896
14.6191
14.1499
13.6824
13.2167
12.7532
12.2923
11.8345
11.3801
10.9296
10.4835
10.0422
9.6063
9.1763
8.7528
8.3363
7.9273
7.5263
7.1340
6.7507
6.3770
6.0134
5.6603
5.3181
4.9872
4.6679
4.3604
4.0650
3.7819
3.5113
3.2531
3.0074
2.7743
2.5535
2.3451
2.1488
1.9644
1.7916
1.6301
1.4797
1.3399
1.2104
1.0907
0.9804
0.8790
0.7861
0.7012
0.6239
0.5537
0.4901
0.4327
0.3809
0.3345
0.2929
0.2558
0.2228
0.1936
0.1677
0.1449
0.1248
0.1072
0.0918
0.0784
0.0668
0.0568
0.0481
0.0406
0.0342
0.0287
0.0240
0.0201
0.0167
0.0139
0.0115
0.0095
0.0078
0.0064
0.0052
0.0043
0.0035
0.0028
0.0023
0.0018
0.0015
0.0012
0.0009
0.0008
0.0006
0.0005
0.0004
0.0003
0.0002
0.0002
0.0001
0.0001
0.0001
0.0001
0.0001
0.0000
0.0000
0.0000
0.0000
0.0000
0.0000
0.0000
0.0000
0.0000
0.0000
0.0000
0.0000
0.0000
0.0000
0.0000
0.0000
0.0000
0.0000
0.0000
0.0000
0.0000
0.0000
0.0000
0.0000
0.0000
0.0000
0.0000
0.0000
0.0000
0.0000
0.0000
0.0000
0.0000
0.0000
0.0000
0.0000
0.0000
0.0000
0.0000
0.0000
0.0000
0.0000
0.0000
0.0000
0.0000
0.0000
0.0000
0.0000
0.0000
0.0000
0.0000
0.0000
0.0000
0.0000
0.0000
0.0000
0.0000
0.0000
0.0000
0.0000
0.0000
0.0000
0.0000
0.0000
0.0000
0.0000
0.0000
0.0000
0.0000
0.0000
0.0000
0.0000
0.0000
0.0000
0.0000
0.0000
0.0000
0.0000
0.0000
0.0000
0.0000
0.0000
0.0000
0.0000
0.0000
0.0000
0.0000
0.0000
0.0000
0.0000
0.0000
0.0000
0.0000
0.0000
0.0000
0.0000
0.0000
0.0000
0.0000
0.0000
0.0000
0.0000
0.0000
0.0000
0.0000
0.0000
0.0000
0.0000
0.0000
0.0000
0.0000
0.0000
0.0000
0.0000
0.0000
0.0000
0.0000
0.0000
0.0000
0.0000
0.0000
0.0000
0.0000
0.0000
0.0000
0.0000
0.0000
0.0000
0.0000
0.0000
0.0000
0.0000
0.0000
0.0000
0.0000
0.0000
0.0000
0.0000
62.8952
62.8952
67.3209
79.2197
102.0326
132.3446
137.7250
130.0802
118.3346
106.4159
95.6755
86.4119
78.5499
71.9072
66.2905
61.5268
57.4692
53.9964
51.0083
48.4230
46.1732
44.2033
42.4674
40.9277
39.5526
38.3159
37.1957
36.1738
35.2348
34.3659
33.5565
32.7973
32.0809
31.4007
30.7514
30.1283
29.5276
28.9459
28.3805
27.8289
27.2891
26.7595
26.2384
25.7246
25.2171
24.7149
24.2172
23.7232
23.2325
22.7445
22.2588
21.7749
21.2926
20.8116
20.3317
19.8526
19.3743
18.8966
18.4194
17.9428
17.4667
16.9912
16.5162
16.0419
15.5685
15.0960
14.6247
14.1548
13.6866
13.2204
12.7565
12.2952
11.8370
11.3823
10.9316
10.4852
10.0437
9.6076
9.1775
8.7538
8.3372
7.9280
7.5270
7.1346
6.7512
6.3775
6.0139
5.6607
5.3185
4.9875
4.6681
4.3606
4.0652
3.7821
3.5114
3.2532
3.0075
2.7744
2.5536
2.3452
2.1488
1.9644
1.7916
1.6302
1.4798
1.3400
1.2104
1.0907
0.9804
0.8790
0.7861
0.7013
0.6239
0.5537
0.4901
0.4327
0.3809
0.3345
0.2929
0.2558
0.2228
0.1936
0.1677
0.1449
0.1248
0.1072
0.0918
0.0784
0.0668
0.0568
0.0481
0.0406
0.0342
0.0287
0.0240
0.0201
0.0167
0.0139
0.0115
0.0095
0.0078
0.0064
0.0052
0.0043
0.0035
0.0028
0.0023
0.0018
0.0015
0.0012
0.0009
0.0008
0.0006
0.0005
0.0004
0.0003
0.0002
0.0002
0.0001
0.0001
0.0001
0.0001
0.0001
0.0000
0.0000
0.0000
0.0000
0.0000
0.0000
0.0000
0.0000
0.0000
0.0000
0.0000
0.0000
0.0000
0.0000
0.0000
0.0000
0.0000
0.0000
0.0000
0.0000
0.0000
0.0000
0.0000
0.0000
0.0000
0.0000
0.0000
0.0000
0.0000
0.0000
0.0000
0.0000
0.0000
0.0000
0.0000
0.0000
0.0000
0.0000
0.0000
0.0000
0.0000
0.0000
0.0000
0.0000
0.0000
0.0000
0.0000
0.0000
0.0000
0.0000
0.0000
0.0000
0.0000
0.0000
0.0000
0.0000
0.0000
0.0000
0.0000
0.0000
0.0000
0.0000
0.0000
0.0000
0.0000
0.0000
0.0000
0.0000
0.0000
0.0000
0.0000
0.0000
0.0000
0.0000
0.0000
0.0000
0.0000
0.0000
0.0000
0.0000
0.0000
0.0000
0.0000
0.0000
0.0000
0.0000
0.0000
0.0000
0.0000
0.0000
0.0000
0.0000
0.0000
0.0000
0.0000
0.0000
0.0000
0.0000
0.0000
0.0000
0.0000
0.0000
0.0000
0.0000
0.0000
0.0000
0.0000
0.0000
0.0000
0.0000
0.0000
0.0000
0.0000
0.0000
0.0000
0.0000
0.0000
0.0000
0.0000
0.0000
0.0000
0.0000
0.0000
0.0000
0.0000
0.0000
0.0000
0.0000
0.0000
0.0000
0.0000
0.0000
0.0000
0.0000
0.0000
0.0000
0.0000
0.0000
77.7486
77.7486
86.2779
111.4352
168.9742
270.3669
246.2071
207.1784
173.7712
147.6841
127.4452
111.5312
98.8112
88.4922
80.0156
72.9793
67.0864
62.1126
57.8850
54.2684
51.1551
48.4587
46.1092
44.0495
42.2324
40.6193
39.1778
37.8811
36.7069
35.6363
34.6537
33.7458
32.9013
32.1109