# vtk DataFile Version 5.0
Example 3D regular grid VTK file.
ASCII
DATASET UNSTRUCTURED_GRID
POINTS 90601 float
0 0 0
0 10 0
0 20 0
0 30 0
0 40 0
0 50 0
0 60 0
0 70 0
0 80 0
0 90 0
0 100 0
0 110 0
0 120 0
0 130 0
0 140 0
0 150 0
0 160 0
0 170 0
0 180 0
0 190 0
0 200 0
0 210 0
0 220 0
0 230 0
0 240 0
0 250 0
0 260 0
0 270 0
0 280 0
0 290 0
0 300 0
0 310 0
0 320 0
0 330 0
0 340 0
0 350 0
0 360 0
0 370 0
0 380 0
0 390 0
0 400 0
0 410 0
0 420 0
0 430 0
0 440 0
0 450 0
0 460 0
0 470 0
0 480 0
0 490 0
0 500 0
0 510 0
0 520 0
0 530 0
0 540 0
0 550 0
0 560 0
0 570 0
0 580 0
0 590 0
0 600 0
0 610 0
0 620 0
0 630 0
0 640 0
0 650 0
0 660 0
0 670 0
0 680 0
0 690 0
0 700 0
0 710 0
0 720 0
0 730 0
0 740 0
0 750 0
0 760 0
0 770 0
0 780 0
0 790 0
0 800 0
0 810 0
0 820 0
0 830 0
0 840 0
0 850 0
0 860 0
0 870 0
0 880 0
0 890 0
0 900 0
0 910 0
0 920 0
0 930 0
0 940 0
0 950 0
0 960 0
0 970 0
0 980 0
0 990 0
0 1000 0
0 1010 0
0 1020 0
0 1030 0
0 1040 0
0 1050 0
0 1060 0
0 1070 0
0 1080 0
0 1090 0
0 1100 0
0 1110 0
0 1120 0
0 1130 0
0 1140 0
0 1150 0
0 1160 0
0 1170 0
0 1180 0
0 1190 0
0 1200 0
0 1210 0
0 1220 0
0 1230 0
0 1240 0
0 1250 0
0 1260 0
0 1270 0
0 1280 0
0 1290 0
0 1300 0
0 1310 0
0 1320 0
0 1330 0
0 1340 0
0 1350 0
0 1360 0
0 1370 0
0 1380 0
0 1390 0
0 1400 0
0 1410 0
0 1420 0
0 1430 0
0 1440 0
0 1450 0
0 1460 0
0 1470 0
0 1480 0
0 1490 0
0 1500 0
0 1510 0
0 1520 0
0 1530 0
0 1540 0
0 1550 0
0 1560 0
0 1570 0
0 1580 0
0 1590 0
0 1600 0
0 1610 0
0 1620 0
0 1630 0
0 1640 0
0 1650 0
0 1660 0
0 1670 0
0 1680 0
0 1690 0
0 1700 0
0 1710 0
0 1720 0
0 1730 0
0 1740 0
0 1750 0
0 1760 0
0 1770 0
0 1780 0
0 1790 0
0 1800 0
0 1810 0
0 1820 0
0 1830 0
0 1840 0
0 1850 0
0 1860 0
0 1870 0
0 1880 0
0 1890 0
0 1900 0
0 1910 0
0 1920 0
0 1930 0
0 1940 0
0 1950 0
0 1960 0
0 1970 0
0 1980 0
0 1990 0
0 2000 0
0 2010 0
0 2020 0
0 2030 0
0 2040 0
0 2050 0
0 2060 0
0 2070 0
0 2080 0
0 2090 0
0 2100 0
0 2110 0
0 2120 0
0 2130 0
0 2140 0
0 2150 0
0 2160 0
0 2170 0
0 2180 0
0 2190 0
0 2200 0
0 2210 0
0 2220 0
0 2230 0
0 2240 0
0 2250 0
0 2260 0
0 2270 0
0 2280 0
0 2290 0
0 2300 0
0 2310 0
0 2320 0
0 2330 0
0 2340 0
0 2350 0
0 2360 0
0 2370 0
0 2380 0
0 2390 0
0 2400 0
0 2410 0
0 2420 0
0 2430 0
0 2440 0
0 2450 0
0 2460 0
0 2470 0
0 2480 0
0 2490 0
0 2500 0
0 2510 0
0 2520 0
0 2530 0
0 2540 0
0 2550 0
0 2560 0
0 2570 0
0 2580 0
0 2590 0
0 2600 0
0 2610 0
0 2620 0
0 2630 0
0 2640 0
0 2650 0
0 2660 0
0 2670 0
0 2680 0
0 2690 0
0 2700 0
0 2710 0
0 2720 0
0 2730 0
0 2740 0
0 2750 0
0 2760 0
0 2770 0
0 2780 0
0 2790 0
0 2800 0
0 2810 0
0 2820 0
0 2830 0
0 2840 0
0 2850 0
0 2860 0
0 2870 0
0 2880 0
0 2890 0
0 2900 0
0 2910 0
0 2920 0
0 2930 0
0 2940 0
0 2950 0
0 2960 0
0 2970 0
0 2980 0
0 2990 0
0 3000 0
10 0 0
10 10 0
10 20 0
10 30 0
10 40 0
10 50 0
10 60 0
10 70 0
10 80 0
10 90 0
10 100 0
10 110 0
10 120 0
10 130 0
10 140 0
10 150 0
10 160 0
10 170 0
10 180 0
10 190 0
10 200 0
10 210 0
10 220 0
10 230 0
10 240 0
10 250 0
10 260 0
10 270 0
10 280 0
10 290 0
10 300 0
10 310 0
10 320 0
10 330 0
10 340 0
10 350 0
10 360 0
10 370 0
10 380 0
10 390 0
10 400 0
10 410 0
10 420 0
10 430 0
10 440 0
10 450 0
10 460 0
10 470 0
10 480 0
10 490 0
10 500 0
10 510 0
10 520 0
10 530 0
10 540 0
10 550 0
10 560 0
10 570 0
10 580 0
10 590 0
10 600 0
10 610 0
10 620 0
10 630 0
10 640 0
10 650 0
10 660 0
10 670 0
10 680 0
10 690 0
10 700 0
10 710 0
10 720 0
10 730 0
10 740 0
10 750 0
10 760 0
10 770 0
10 780 0
10 790 0
10 800 0
10 810 0
10 820 0
10 830 0
10 840 0
10 850 0
10 860 0
10 870 0
10 880 0
10 890 0
10 900 0
10 910 0
10 920 0
10 930 0
10 940 0
10 950 0
10 960 0
10 970 0
10 980 0
10 990 0
10 1000 0
10 1010 0
10 1020 0
10 1030 0
10 1040 0
10 1050 0
10 1060 0
10 1070 0
10 1080 0
10 1090 0
10 1100 0
10 1110 0
10 1120 0
10 1130 0
10 1140 0
10 1150 0
10 1160 0
10 1170 0
10 1180 0
10 1190 0
10 1200 0
10 1210 0
10 1220 0
10 1230 0
10 1240 0
10 1250 0
10 1260 0
10 1270 0
10 1280 0
10 1290 0
10 1300 0
10 1310 0
10 1320 0
10 1330 0
10 1340 0
10 1350 0
10 1360 0
10 1370 0
10 1380 0
10 1390 0
10 1400 0
10 1410 0
10 1420 0
10 1430 0
10 1440 0
10 1450 0
10 1460 0
10 1470 0
10 1480 0
10 1490 0
10 1500 0
10 1510 0
10 1520 0
10 1530 0
10 1540 0
10 1550 0
10 1560 0
10 1570 0
10 1580 0
10 1590 0
10 1600 0
10 1610 0
10 1620 0
10 1630 0
10 1640 0
10 1650 0
10 1660 0
10 1670 0
10 1680 0
10 1690 0
10 1700 0
10 1710 0
10 1720 0
10 1730 0
10 1740 0
10 1750 0
10 1760 0
10 1770 0
10 1780 0
10 1790 0
10 1800 0
10 1810 0
10 1820 0
10 1830 0
10 1840 0
10 1850 0
10 1860 0
10 1870 0
10 1880 0
10 1890 0
10 1900 0
10 1910 0
10 1920 0
10 1930 0
10 1940 0
10 1950 0
10 1960 0
10 1970 0
10 1980 0
10 1990 0
10 2000 0
10 2010 0
10 2020 0
10 2030 0
10 2040 0
10 2050 0
10 2060 0
10 2070 0
10 2080 0
10 2090 0
10 2100 0
10 2110 0
10 2120 0
10 2130 0
10 2140 0
10 2150 0
10 2160 0
10 2170 0
10 2180 0
10 2190 0
10 2200 0
10 2210 0
10 2220 0
10 2230 0
10 2240 0
10 2250 0
10 2260 0
10 2270 0
10 2280 0
10 2290 0
10 2300 0
10 2310 0
10 2320 0
10 2330 0
10 2340 0
10 2350 0
10 2360 0
10 2370 0
10 2380 0
10 2390 0
10 2400 0
10 2410 0
10 2420 0
10 2430 0
10 2440 0
10 2450 0
10 2460 0
10 2470 0
10 2480 0
10 2490 0
10 2500 0
10 2510 0
10 2520 0
10 2530 0
10 2540 0
10 2550 0
10 2560 0
10 2570 0
10 2580 0
10 2590 0
10 2600 0
10 2610 0
10 2620 0
10 2630 0
10 2640 0
10 2650 0
10 2660 0
10 2670 0
10 2680 0
10 2690 0
10 2700 0
10 2710 0
10 2720 0
10 2730 0
10 2740 0
10 2750 0
10 2760 0
10 2770 0
10 2780 0
10 2790 0
10 2800 0
10 2810 0
10 2820 0
10 2830 0
10 2840 0
10 2850 0
10 2860 0
10 2870 0
10 2880 0
10 2890 0
10 2900 0
10 2910 0
10 2920 0
10 2930 0
10 2940 0
10 2950 0
10 2960 0
10 2970 0
10 2980 0
10 2990 0
10 3000 0
20 0 0
20 10 0
20 20 0
20 30 0
20 40 0
20 50 0
20 60 0
20 70 0
20 80 0
20 90 0
20 100 0
20 110 0
20 120 0
20 130 0
20 140 0
20 150 0
20 160 0
20 170 0
20 180 0
20 190 0
20 200 0
20 210 0
20 220 0
20 230 0
20 240 0
20 250 0
20 260 0
20 270 0
20 280 0
20 290 0
20 300 0
20 310 0
20 320 0
20 330 0
20 340 0
20 350 0
20 360 0
20 370 0
20 380 0
20 390 0
20 400 0
20 410 0
20 420 0
20 430 0
20 440 0
20 450 0
20 460 0
20 470 0
20 480 0
20 490 0
20 500 0
20 510 0
20 520 0
20 530 0
20 540 0
20 550 0
20 560 0
20 570 0
20 580 0
20 590 0
20 600 0
20 610 0
20 620 0
20 630 0
20 640 0
20 650 0
20 660 0
20 670 0
20 680 0
20 690 0
20 700 0
20 710 0
20 720 0
20 730 0
20 740 0
20 750 0
20 760 0
20 770 0
20 780 0
20 790 0
20 800 0
20 810 0
20 820 0
20 830 0
20 840 0
20 850 0
20 860 0
20 870 0
20 880 0
20 890 0
20 900 0
20 910 0
20 920 0
20 930 0
20 940 0
20 950 0
20 960 0
20 970 0
20 980 0
20 990 0
20 1000 0
20 1010 0
20 1020 0
20 1030 0
20 1040 0
20 1050 0
20 1060 0
20 1070 0
20 1080 0
20 1090 0
20 1100 0
20 1110 0
20 1120 0
20 1130 0
20 1140 0
20 1150 0
20 1160 0
20 1170 0
20 1180 0
20 1190 0
20 1200 0
20 1210 0
20 1220 0
20 1230 0
20 1240 0
20 1250 0
20 1260 0
20 1270 0
20 1280 0
20 1290 0
20 1300 0
20 1310 0
20 1320 0
20 1330 0
20 1340 0
20 1350 0
20 1360 0
20 1370 0
20 1380 0
20 1390 0
20 1400 0
20 1410 0
20 1420 0
20 1430 0
20 1440 0
20 1450 0
20 1460 0
20 1470 0
20 1480 0
20 1490 0
20 1500 0
20 1510 0
20 1520 0
20 1530 0
20 1540 0
20 1550 0
20 1560 0
20 1570 0
20 1580 0
20 1590 0
20 1600 0
20 1610 0
20 1620 0
20 1630 0
20 1640 0
20 1650 0
20 1660 0
20 1670 0
20 1680 0
20 1690 0
20 1700 0
20 1710 0
20 1720 0
20 1730 0
20 1740 0
20 1750 0
20 1760 0
20 1770 0
20 1780 0
20 1790 0
20 1800 0
20 1810 0
20 1820 0
20 1830 0
20 1840 0
20 1850 0
20 1860 0
20 1870 0
20 1880 0
20 1890 0
20 1900 0
20 1910 0
20 1920 0
20 1930 0
20 1940 0
20 1950 0
20 1960 0
20 1970 0
20 1980 0
20 1990 0
20 2000 0
20 2010 0
20 2020 0
20 2030 0
20 2040 0
20 2050 0
20 2060 0
20 2070 0
20 2080 0
20 2090 0
20 2100 0
20 2110 0
20 2120 0
20 2130 0
20 2140 0
20 2150 0
20 2160 0
20 2170 0
20 2180 0
20 2190 0
20 2200 0
20 2210 0
20 2220 0
20 2230 0
20 2240 0
20 2250 0
20 2260 0
20 2270 0
20 2280 0
20 2290 0
20 2300 0
20 2310 0
20 2320 0
20 2330 0
20 2340 0
20 2350 0
20 2360 0
20 2370 0
20 2380 0
20 2390 0
20 2400 0
20 2410 0
20 2420 0
20 2430 0
20 2440 0
20 2450 0
20 2460 0
20 2470 0
20 2480 0
20 2490 0
20 2500 0
20 2510 0
20 2520 0
20 2530 0
20 2540 0
20 2550 0
20 2560 0
20 2570 0
20 2580 0
20 2590 0
20 2600 0
20 2610 0
20 2620 0
20 2630 0
20 2640 0
20 2650 0
20 2660 0
20 2670 0
20 2680 0
20 2690 0
20 2700 0
20 2710 0
20 2720 0
20 2730 0
20 2740 0
20 2750 0
20 2760 0
20 2770 0
20 2780 0
20 2790 0
20 2800 0
20 2810 0
20 2820 0
20 2830 0
20 2840 0
20 2850 0
20 2860 0
20 2870 0
20 2880 0
20 2890 0
20 2900 0
20 2910 0
20 2920 0
20 2930 0
20 2940 0
20 2950 0
20 2960 0
20 2970 0
20 2980 0
20 2990 0
20 3000 0
30 0 0
30 10 0
30 20 0
30 30 0
30 40 0
30 50 0
30 60 0
30 70 0
30 80 0
30 90 0
30 100 0
30 110 0
30 120 0
30 130 0
30 140 0
30 150 0
30 160 0
30 170 0
30 180 0
30 190 0
30 200 0
30 210 0
30 220 0
30 230 0
30 240 0
30 250 0
30 260 0
30 270 0
30 280 0
30 290 0
30 300 0
30 310 0
30 320 0
30 330 0
30 340 0
30 350 0
30 360 0
30 370 0
30 380 0
30 390 0
30 400 0
30 410 0
30 420 0
30 430 0
30 440 0
30 450 0
30 460 0
30 470 0
30 480 0
30 490 0
30 500 0
30 510 0
30 520 0
30 530 0
30 540 0
30 550 0
30 560 0
30 570 0
30 580 0
30 590 0
30 600 0
30 610 0
30 620 0
30 630 0
30 640 0
30 650 0
30 660 0
30 670 0
30 680 0
30 690 0
30 700 0
30 710 0
30 720 0
30 730 0
30 740 0
30 750 0
30 760 0
30 770 0
30 780 0
30 790 0
30 800 0
30 810 0
30 820 0
30 830 0
30 840 0
30 850 0
30 860 0
30 870 0
30 880 0
30 890 0
30 900 0
30 910 0
30 920 0
30 930 0
30 940 0
30 950 0
30 960 0
30 970 0
30 980 0
30 990 0
30 1000 0
30 1010 0
30 1020 0
30 1030 0
30 1040 0
30 1050 0
30 1060 0
30 1070 0
30 1080 0
30 1090 0
30 1100 0
30 1110 0
30 1120 0
30 1130 0
30 1140 0
30 1150 0
30 1160 0
30 1170 0
30 1180 0
30 1190 0
30 1200 0
30 1210 0
30 1220 0
30 1230 0
30 1240 0
30 1250 0
30 1260 0
30 1270 0
30 1280 0
30 1290 0
30 1300 0
30 1310 0
30 1320 0
30 1330 0
30 1340 0
30 1350 0
30 1360 0
30 1370 0
30 1380 0
30 1390 0
30 1400 0
30 1410 0
30 1420 0
30 1430 0
30 1440 0
30 1450 0
30 1460 0
30 1470 0
30 1480 0
30 1490 0
30 1500 0
30 1510 0
30 1520 0
30 1530 0
30 1540 0
30 1550 0
30 1560 0
30 1570 0
30 1580 0
30 1590 0
[...]
POINT_DATA 90601
SCALARS P float
LOOKUP_TABLE default
38.7651
38.7651
38.8020
38.8901
39.0380
39.2448
39.4979
39.7765
40.0563
40.3142
40.5320
40.6972
40.8030
40.8473
40.8314
40.7587
40.6339
40.4626
40.2500
40.0013
39.7215
39.4147
39.0848
38.7352
38.3688
37.9880
37.5951
37.1917
36.7795
36.3598
35.9336
35.5020
35.0658
34.6256
34.1819
33.7354
33.2863
32.8351
32.3821
31.9274
31.4713
31.0141
30.5558
30.0965
29.6364
29.1756
28.7141
28.2520
27.7894
27.3262
26.8626
26.3984
25.9339
25.4688
25.0034
24.5375
24.0713
23.6046
23.1375
22.6700
22.2022
21.7340
21.2654
20.7966
20.3274
19.8581
19.3886
18.9189
18.4493
17.9798
17.5105
17.0415
16.5731
16.1053
15.6384
15.1727
14.7082
14.2455
13.7846
13.3259
12.8699
12.4167
11.9669
11.5207
11.0787
10.6413
10.2088
9.7818
9.3607
8.9460
8.5382
8.1377
7.7449
7.3604
6.9845
6.6178
6.2604
5.9130
5.5757
5.2489
4.9328
4.6278
4.3340
4.0516
3.7807
3.5214
3.2737
3.0376
2.8131
2.6000
2.3983
2.2078
2.0283
1.8595
1.7012
1.5531
1.4149
1.2861
1.1666
1.0558
0.9535
0.8591
0.7723
0.6928
0.6200
0.5535
0.4931
0.4382
0.3885
0.3436
0.3032
0.2669
0.2344
0.2053
0.1794
0.1564
0.1360
0.1180
0.1021
0.0881
0.0759
0.0652
0.0558
0.0477
0.0407
0.0346
0.0293
0.0248
0.0209
0.0176
0.0148
0.0124
0.0103
0.0086
0.0071
0.0059
0.0049
0.0040
0.0033
0.0027
0.0022
0.0018
0.0015
0.0012
0.0010
0.0008
0.0006
0.0005
0.0004
0.0003
0.0003
0.0002
0.0002
0.0001
0.0001
0.0001
0.0001
0.0000
0.0000
0.0000
0.0000
0.0000
0.0000
0.0000
0.0000
0.0000
0.0000
0.0000
0.0000
0.0000
0.0000
0.0000
0.0000
0.0000
0.0000
0.0000
0.0000
0.0000
0.0000
0.0000
0.0000
0.0000
0.0000
0.0000
0.0000
0.0000
0.0000
0.0000
0.0000
0.0000
0.0000
0.0000
0.0000
0.0000
0.0000
0.0000
0.0000
0.0000
0.0000
0.0000
0.0000
0.0000
0.0000
0.0000
0.0000
0.0000
0.0000
0.0000
0.0000
0.0000
0.0000
0.0000
0.0000
0.0000
0.0000
0.0000
0.0000
0.0000
0.0000
0.0000
0.0000
0.0000
0.0000
0.0000
0.0000
0.0000
0.0000
0.0000
0.0000
0.0000
0.0000
0.0000
0.0000
0.0000
0.0000
0.0000
0.0000
0.0000
0.0000
0.0000
0.0000
0.0000
0.0000
0.0000
0.0000
0.0000
0.0000
0.0000
0.0000
0.0000
0.0000
0.0000
0.0000
0.0000
0.0000
0.0000
0.0000
0.0000
0.0000
0.0000
0.0000
0.0000
0.0000
0.0000
0.0000
0.0000
0.0000
0.0000
0.0000
0.0000
0.0000
0.0000
0.0000
0.0000
0.0000
0.0000
0.0000
0.0000
0.0000
0.0000
0.0000
38.7651
38.7651
38.8020
38.8901
39.0380
39.2448
39.4979
39.7765
40.0563
40.3142
40.5320
40.6972
40.8030
40.8473
40.8314
40.7587
40.6339
40.4626
40.2500
40.0013
39.7215
39.4147
39.0848
38.7352
38.3688
37.9880
37.5951
37.1917
36.7795
36.3598
35.9336
35.5020
35.0658
34.6256
34.1819
33.7354
33.2863
32.8351
32.3821
31.9274
31.4713
31.0141
30.5558
30.0965
29.6364
29.1756
28.7141
28.2520
27.7894
27.3262
26.8626
26.3984
25.9339
25.4688
25.0034
24.5375
24.0713
23.6046
23.1375
22.6700
22.2022
21.7340
21.2654
20.7966
20.3274
19.8581
19.3886
18.9189
18.4493
17.9798
17.5105
17.0415
16.5731
16.1053
15.6384
15.1727
14.7082
14.2455
13.7846
13.3259
12.8699
12.4167
11.9669
11.5207
11.0787
10.6413
10.2088
9.7818
9.3607
8.9460
8.5382
8.1377
7.7449
7.3604
6.9845
6.6178
6.2604
5.9130
5.5757
5.2489
4.9328
4.6278
4.3340
4.0516
3.7807
3.5214
3.2737
3.0376
2.8131
2.6000
2.3983
2.2078
2.0283
1.8595
1.7012
1.5531
1.4149
1.2861
1.1666
1.0558
0.9535
0.8591
0.7723
0.6928
0.6200
0.5535
0.4931
0.4382
0.3885
0.3436
0.3032
0.2669
0.2344
0.2053
0.1794
0.1564
0.1360
0.1180
0.1021
0.0881
0.0759
0.0652
0.0558
0.0477
0.0407
0.0346
0.0293
0.0248
0.0209
0.0176
0.0148
0.0124
0.0103
0.0086
0.0071
0.0059
0.0049
0.0040
0.0033
0.0027
0.0022
0.0018
0.0015
0.0012
0.0010
0.0008
0.0006
0.0005
0.0004
0.0003
0.0003
0.0002
0.0002
0.0001
0.0001
0.0001
0.0001
0.0000
0.0000
0.0000
0.0000
0.0000
0.0000
0.0000
0.0000
0.0000
0.0000
0.0000
0.0000
0.0000
0.0000
0.0000
0.0000
0.0000
0.0000
0.0000
0.0000
0.0000
0.0000
0.0000
0.0000
0.0000
0.0000
0.0000
0.0000
0.0000
0.0000
0.0000
0.0000
0.0000
0.0000
0.0000
0.0000
0.0000
0.0000
0.0000
0.0000
0.0000
0.0000
0.0000
0.0000
0.0000
0.0000
0.0000
0.0000
0.0000
0.0000
0.0000
0.0000
0.0000
0.0000
0.0000
0.0000
0.0000
0.0000
0.0000
0.0000
0.0000
0.0000
0.0000
0.0000
0.0000
0.0000
0.0000
0.0000
0.0000
0.0000
0.0000
0.0000
0.0000
0.0000
0.0000
0.0000
0.0000
0.0000
0.0000
0.0000
0.0000
0.0000
0.0000
0.0000
0.0000
0.0000
0.0000
0.0000
0.0000
0.0000
0.0000
0.0000
0.0000
0.0000
0.0000
0.0000
0.0000
0.0000
0.0000
0.0000
0.0000
0.0000
0.0000
0.0000
0.0000
0.0000
0.0000
0.0000
0.0000
0.0000
0.0000
0.0000
0.0000
0.0000
0.0000
0.0000
0.0000
0.0000
0.0000
0.0000
0.0000
0.0000
0.0000
0.0000
39.0563
39.0563
39.1051
39.2207
39.4121
39.6727
39.9796
40.3006
40.6041
40.8649
41.0668
41.2016
41.2676
41.2671
41.2050
41.0874
40.9206
40.7108
40.4638
40.1849
39.8786
39.5490
39.1995
38.8330
38.4522
38.0592
37.6557
37.2435
36.8237
36.3976
35.9660
35.5297
35.0895
34.6459
34.1994
33.7503
33.2992
32.8462
32.3916
31.9356
31.4784
31.0202
30.5610
30.1011
29.6404
29.1790
28.7171
28.2546
27.7916
27.3281
26.8642
26.3999
25.9351
25.4699
25.0044
24.5384
24.0720
23.6052
23.1381
22.6705
22.2026
21.7344
21.2658
20.7969
20.3277
19.8583
19.3887
18.9191
18.4495
17.9799
17.5106
17.0416
16.5731
16.1054
15.6385
15.1727
14.7083
14.2455
13.7846
13.3260
12.8699
12.4167
11.9669
11.5208
11.0787
10.6413
10.2088
9.7818
9.3607
8.9460
8.5382
8.1377
7.7449
7.3604
6.9845
6.6178
6.2604
5.9130
5.5757
5.2489
4.9328
4.6278
4.3340
4.0516
3.7807
3.5214
3.2737
3.0376
2.8131
2.6000
2.3983
2.2078
2.0283
1.8595
1.7012
1.5531
1.4149
1.2861
1.1666
1.0558
0.9535
0.8591
0.7723
0.6928
0.6200
0.5535
0.4931
0.4382
0.3885
0.3436
0.3032
0.2669
0.2344
0.2053
0.1794
0.1564
0.1360
0.1180
0.1021
0.0881
0.0759
0.0652
0.0558
0.0477
0.0407
0.0346
0.0293
0.0248
0.0209
0.0176
0.0148
0.0124
0.0103
0.0086
0.0071
0.0059
0.0049
0.0040
0.0033
0.0027
0.0022
0.0018
0.0015
0.0012
0.0010
0.0008
0.0006
0.0005
0.0004
0.0003
0.0003
0.0002
0.0002
0.0001
0.0001
0.0001
0.0001
0.0000
0.0000
0.0000
0.0000
0.0000
0.0000
0.0000
0.0000
0.0000
0.0000
0.0000
0.0000
0.0000
0.0000
0.0000
0.0000
0.0000
0.0000
0.0000
0.0000
0.0000
0.0000
0.0000
0.0000
0.0000
0.0000
0.0000
0.0000
0.0000
0.0000
0.0000
0.0000
0.0000
0.0000
0.0000
0.0000
0.0000
0.0000
0.0000
0.0000
0.0000
0.0000
0.0000
0.0000
0.0000
0.0000
0.0000
0.0000
0.0000
0.0000
0.0000
0.0000
0.0000
0.0000
0.0000
0.0000
0.0000
0.0000
0.0000
0.0000
0.0000
0.0000
0.0000
0.0000
0.0000
0.0000
0.0000
0.0000
0.0000
0.0000
0.0000
0.0000
0.0000
0.0000
0.0000
0.0000
0.0000
0.0000
0.0000
0.0000
0.0000
0.0000
0.0000
0.0000
0.0000
0.0000
0.0000
0.0000
0.0000
0.0000
0.0000
0.0000
0.0000
0.0000
0.0000
0.0000
0.0000
0.0000
0.0000
0.0000
0.0000
0.0000
0.0000
0.0000
0.0000
0.0000
0.0000
0.0000
0.0000
0.0000
0.0000
0.0000
0.0000
0.0000
0.0000
0.0000
0.0000
0.0000
0.0000
0.0000
0.0000
0.0000
0.0000
0.0000
39.8329
39.8329
39.9183
40.1191
40.4448
40.8694
41.3328
41.7680
42.1247
42.3765
42.5176
42.5549
42.5018
42.3731
42.1827
41.9427
41.6630
41.3516
41.0145
40.6566
40.2819
39.8932
39.4931
39.0834
38.6657
38.2412
37.8111
37.3761
36.9370
36.4944
36.0488
35.6006
35.1503
34.6980
34.2441
33.7888
33.3323
32.8746
32.4161
31.9567
31.4967
31.0359
30.5746
30.1128
29.6506
29.1878
28.7247
28.2612
27.7974
27.3331
26.8686
26.4036
25.9384
25.4728
25.0068
24.5405
24.0739
23.6069
23.1395
22.6718
22.2037
21.7353
21.2666
20.7976
20.3283
19.8589
19.3892
18.9195
18.4498
17.9802
17.5109
17.0419
16.5734
16.1056
15.6387
15.1729
14.7084
14.2456
13.7847
13.3261
12.8700
12.4168
11.9670
11.5208
11.0788
10.6413
10.2089
9.7819
9.3608
8.9461
8.5382
8.1377
7.7449
7.3604
6.9846
6.6178
6.2605
5.9130
5.5757
5.2489
4.9329
4.6278
4.3340
4.0516
3.7807
3.5214
3.2737
3.0376
2.8131
2.6000
2.3983
2.2078
2.0283
1.8595
1.7012
1.5531
1.4149
1.2861
1.1666
1.0558
0.9535
0.8591
0.7723
0.6928
0.6200
0.5535
0.4931
0.4382
0.3885
0.3436
0.3032
0.2669
0.2344
0.2053
0.1794
0.1564
0.1360
0.1180
0.1021
0.0881
0.0759
0.0652
0.0558
0.0477
0.0407
0.0346
0.0293
0.0248
0.0209
0.0176
0.0148
0.0124
0.0103
0.0086
0.0071
0.0059
0.0049
0.0040
0.0033
0.0027
0.0022
0.0018
0.0015
0.0012
0.0010
0.0008
0.0006
0.0005
0.0004
0.0003
0.0003
0.0002
0.0002
0.0001
0.0001
0.0001
0.0001
0.0000
0.0000
0.0000
0.0000
0.0000
0.0000
0.0000
0.0000
0.0000
0.0000
0.0000
0.0000
0.0000
0.0000
0.0000
0.0000
0.0000
0.0000
0.0000
0.0000
0.0000
0.0000
0.0000
0.0000
0.0000
0.0000
0.0000
0.0000
0.0000
0.0000
0.0000
0.0000
0.0000
0.0000
0.0000
0.0000
0.0000
0.0000
0.0000
0.0000
0.0000
0.0000
0.0000
0.0000
0.0000
0.0000
0.0000
0.0000
0.0000
0.0000
0.0000
0.0000
0.0000
0.0000
0.0000
0.0000
0.0000
0.0000
0.0000
0.0000
0.0000
0.0000
0.0000
0.0000
0.0000
0.0000
0.0000
0.0000
0.0000
0.0000
0.0000
0.0000
0.0000
0.0000
0.0000
0.0000
0.0000
0.0000
0.0000
0.0000
0.0000
0.0000
0.0000
0.0000
0.0000
0.0000
0.0000
0.0000
0.0000
0.0000
0.0000
0.0000
0.0000
0.0000
0.0000
0.0000
0.0000
0.0000
0.0000
0.0000
0.0000
0.0000
0.0000
0.0000
0.0000
0.0000
0.0000
0.0000
0.0000
0.0000
0.0000
0.0000
0.0000
0.0000
0.0000
0.0000
0.0000
0.0000
0.0000
0.0000
0.0000
0.0000
0.0000
0.0000
41.4014
41.4014
41.5797
41.9982
42.6674
43.5018
44.3268
44.9875
45.4058
45.5740
45.5259
45.3103
44.9750
44.5598
44.0948
43.6011
43.0928
42.5789
42.0650
41.5539
41.0474
40.5458
40.0492
39.5573
39.0697
38.5858
38.1051
37.6272
37.1515
36.6779
36.2059
35.7352
35.2657
34.7971
34.3292
33.8619
33.3952
32.9289
32.4628
31.9970
31.5315
31.0660
30.6006
30.1353
29.6700
29.2047
28.7393
28.2739
27.8084
27.3427
26.8769
26.4109
25.9447
25.4783
25.0116
24.5447
24.0775
23.6100
23.1423
22.6742
22.2058
21.7371
21.2682
20.7990
20.3295
19.8599
19.3902
18.9204
18.4506
17.9809
17.5114
17.0423
16.5738
16.1059
15.6390
15.1731
14.7087
14.2458
13.7849
13.3262
12.8701
12.4169
11.9671
11.5209
11.0789
10.6414
10.2089
9.7819
9.3608
8.9461
8.5383
8.1377
7.7450
7.3605
6.9846
6.6178
6.2605
5.9130
5.5757
5.2489
4.9329
4.6279
4.3341
4.0516
3.7807
3.5214
3.2737
3.0376
2.8131
2.6000
2.3983
2.2078
2.0283
1.8595
1.7012
1.5531
1.4149
1.2862
1.1666
1.0558
0.9535
0.8591
0.7723
0.6928
0.6200
0.5535
0.4931
0.4382
0.3885
0.3436
0.3032
0.2669
0.2344
0.2053
0.1794
0.1564
0.1360
0.1180
0.1021
0.0881
0.0759
0.0652
0.0558
0.0477
0.0407
0.0346
0.0293
0.0248
0.0209
0.0176
0.0148
0.0124
0.0103
0.0086
0.0071
0.0059
0.0049
0.0040
0.0033
0.0027
0.0022
0.0018
0.0015
0.0012
0.0010
0.0008
0.0006
0.0005
0.0004
0.0003
0.0003
0.0002
0.0002
0.0001
0.0001
0.0001
0.0001
0.0000
0.0000
0.0000
0.0000
0.0000
0.0000
0.0000
0.0000
0.0000
0.0000
0.0000
0.0000
0.0000
0.0000
0.0000
0.0000
0.0000
0.0000
0.0000
0.0000
0.0000
0.0000
0.0000
0.0000
0.0000
0.0000
0.0000
0.0000
0.0000
0.0000
0.0000
0.0000
0.0000
0.0000
0.0000
0.0000
0.0000
0.0000
0.0000
0.0000
0.0000
0.0000
0.0000
0.0000
0.0000
0.0000
0.0000
0.0000
0.0000
0.0000
0.0000
0.0000
0.0000
0.0000
0.0000
0.0000
0.0000
0.0000
0.0000
0.0000
0.0000
0.0000
0.0000
0.0000
0.0000
0.0000
0.0000
0.0000
0.0000
0.0000
0.0000
0.0000
0.0000
0.0000
0.0000
0.0000
0.0000
0.0000
0.0000
0.0000
0.0000
0.0000
0.0000
0.0000
0.0000
0.0000
0.0000
0.0000
0.0000
0.0000
0.0000
0.0000
0.0000
0.0000
0.0000
0.0000
0.0000
0.0000
0.0000
0.0000
0.0000
0.0000
0.0000
0.0000
0.0000
0.0000
0.0000
0.0000
0.0000
0.0000
0.0000
0.0000
0.0000
0.0000
0.0000
0.0000
0.0000
0.0000
0.0000
0.0000
0.0000
0.0000
0.0000
0.0000
44.2287
44.2287
44.6301
45.5795
47.0976
48.9234
50.5135
51.5212
51.8809
51.6959
51.1231
50.3093
49.3680
48.3774
47.3870
46.4256
45.5077
44.6391
43.8201
43.0481
42.3191
41.6282
40.9708
40.3425
39.7390
39.1567
38.5925
38.0436
37.5077
36.9828
36.4671
35.9592
35.4580
34.9622
34.4712
33.9842
33.5005
33.0196
32.5411
32.0646
31.5898
31.1165
30.6443
30.1731
29.7028
29.2331
28.7640
28.2953
27.8269
27.3588
26.8909
26.4231
25.9553
25.4875
25.0197
24.5517
24.0836
23.6154
23.1469
22.6783
22.2094
21.7403
21.2709
20.8014
20.3316
19.8617
19.3918
18.9217
18.4518
17.9819
17.5124
17.0432
16.5745
16.1066
15.6395
15.1736
14.7091
14.2462
13.7852
13.3265
12.8704
12.4172
11.9673
11.5211
11.0790
10.6415
10.2090
9.7820
9.3609
8.9462
8.5383
8.1378
7.7450
7.3605
6.9846
6.6178
6.2605
5.9130
5.5757
5.2489
4.9329
4.6279
4.3341
4.0517
3.7807
3.5214
3.2737
3.0376
2.8131
2.6000
2.3983
2.2078
2.0283
1.8595
1.7012
1.5531
1.4149
1.2862
1.1666
1.0558
0.9535
0.8591
0.7723
0.6928
0.6200
0.5535
0.4931
0.4382
0.3885
0.3436
0.3032
0.2669
0.2344
0.2053
0.1794
0.1564
0.1360
0.1180
0.1021
0.0881
0.0759
0.0652
0.0558
0.0477
0.0407
0.0346
0.0293
0.0248
0.0209
0.0176
0.0148
0.0124
0.0103
0.0086
0.0071
0.0059
0.0049
0.0040
0.0033
0.0027
0.0022
0.0018
0.0015
0.0012
0.0010
0.0008
0.0006
0.0005
0.0004
0.0003
0.0003
0.0002
0.0002
0.0001
0.0001
0.0001
0.0001
0.0000
0.0000
0.0000
0.0000
0.0000
0.0000
0.0000
0.0000
0.0000
0.0000
0.0000
0.0000
0.0000
0.0000
0.0000
0.0000
0.0000
0.0000
0.0000
0.0000
0.0000
0.0000
0.0000
0.0000
0.0000
0.0000
0.0000
0.0000
0.0000
0.0000
0.0000
0.0000
0.0000
0.0000
0.0000
0.0000
0.0000
0.0000
0.0000
0.0000
0.0000
0.0000
0.0000
0.0000
0.0000
0.0000
0.0000
0.0000
0.0000
0.0000
0.0000
0.0000
0.0000
0.0000
0.0000
0.0000
0.0000
0.0000
0.0000
0.0000
0.0000
0.0000
0.0000
0.0000
0.0000
0.0000
0.0000
0.0000
0.0000
0.0000
0.0000
0.0000
0.0000
0.0000
0.0000
0.0000
0.0000
0.0000
0.0000
0.0000
0.0000
0.0000
0.0000
0.0000
0.0000
0.0000
0.0000
0.0000
0.0000
0.0000
0.0000
0.0000
0.0000
0.0000
0.0000
0.0000
0.0000
0.0000
0.0000
0.0000
0.0000
0.0000
0.0000
0.0000
0.0000
0.0000
0.0000
0.0000
0.0000
0.0000
0.0000
0.0000
0.0000
0.0000
0.0000
0.0000
0.0000
0.0000
0.0000
0.0000
0.0000
0.0000
0.0000
0.0000
48.9820
48.9820
49.9014
52.1238
55.7544
60.0336
63.1100
64.3635
64.0621
62.7318
60.8422
58.7235
56.5791
54.5218
52.6062
50.8522
49.2601
47.8203
46.5183
45.3382
44.2644
43.2822
42.3785
41.5417
40.7616
40.0297
39.3385
38.6818
38.0541
37.4510
36.8688
36.3041
35.7544
35.2172
34.6907
34.1733
33.6636
33.1603
32.6627
32.1697
31.6807
31.1951
30.7124
30.2322
29.7540
29.2775
28.8026
28.3288
27.8561
27.3842
26.9130
26.4423
25.9720
25.5021
25.0324
24.5628
24.0933
23.6238
23.1543
22.6847
22.2150
21.7452
21.2752
20.8051
20.3349
19.8646
19.3943
18.9240
18.4537
17.9836
17.5139
17.0445
16.5757
16.1076
15.6404
15.1744
14.7098
14.2468
13.7858
13.3270
12.8708
12.4175
11.9676
11.5214
11.0793
10.6417
10.2092
9.7822
9.3611
8.9463
8.5385
8.1379
7.7451
7.3606
6.9847
6.6179
6.2606
5.9131
5.5758
5.2490
4.9329
4.6279
4.3341
4.0517
3.7808
3.5214
3.2737
3.0376
2.8131
2.6000
2.3983
2.2078
2.0283
1.8595
1.7012
1.5531
1.4149
1.2862
1.1666
1.0558
0.9535
0.8591
0.7723
0.6928
0.6200
0.5535
0.4931
0.4382
0.3885
0.3436
0.3032
0.2669
0.2344
0.2053
0.1794
0.1564
0.1360
0.1180
0.1021
0.0881
0.0759
0.0652
0.0558
0.0477
0.0407
0.0346
0.0293
0.0248
0.0209
0.0176
0.0148
0.0124
0.0103
0.0086
0.0071
0.0059
0.0049
0.0040
0.0033
0.0027
0.0022
0.0018
0.0015
0.0012
0.0010
0.0008
0.0006
0.0005
0.0004
0.0003
0.0003
0.0002
0.0002
0.0001
0.0001
0.0001
0.0001
0.0000
0.0000
0.0000
0.0000
0.0000
0.0000
0.0000
0.0000
0.0000
0.0000
0.0000
0.0000
0.0000
0.0000
0.0000
0.0000
0.0000
0.0000
0.0000
0.0000
0.0000
0.0000
0.0000
0.0000
0.0000
0.0000
0.0000
0.0000
0.0000
0.0000
0.0000
0.0000
0.0000
0.0000
0.0000
0.0000
0.0000
0.0000
0.0000
0.0000
0.0000
0.0000
0.0000
0.0000
0.0000
0.0000
0.0000
0.0000
0.0000
0.0000
0.0000
0.0000
0.0000
0.0000
0.0000
0.0000
0.0000
0.0000
0.0000
0.0000
0.0000
0.0000
0.0000
0.0000
0.0000
0.0000
0.0000
0.0000
0.0000
0.0000
0.0000
0.0000
0.0000
0.0000
0.0000
0.0000
0.0000
0.0000
0.0000
0.0000
0.0000
0.0000
0.0000
0.0000
0.0000
0.0000
0.0000
0.0000
0.0000
0.0000
0.0000
0.0000
0.0000
0.0000
0.0000
0.0000
0.0000
0.0000
0.0000
0.0000
0.0000
0.0000
0.0000
0.0000
0.0000
0.0000
0.0000
0.0000
0.0000
0.0000
0.0000
0.0000
0.0000
0.0000
0.0000
0.0000
0.0000
0.0000
0.0000
0.0000
0.0000
0.0000
0.0000
0.0000
56.5053
56.5053
58.5752
63.7871
72.7793
83.5566
88.9400
89.0562
86.0005
81.5180
76.6548
71.9429
67.6140
63.7428
60.3280
57.3347
54.7160
52.4231
50.4099
48.6352
47.0626
45.6611
44.4039
43.2686
42.2360
41.2900
40.4170
39.6057
38.8465
38.1313
37.4534
36.8069
36.1872
35.5902
35.0123
34.4508
33.9033
33.3675
32.8419
32.3248
31.8150
31.3115
30.8134
30.3198
29.8301
29.3436
28.8600
28.3788
27.8995
27.4220
26.9459
26.4710
25.9971
25.5239
25.0514
24.5794
24.1078
23.6365
23.1654
22.6944
22.2235
21.7526
21.2817
20.8108
20.3399
19.8690
19.3981
18.9273
18.4567
17.9862
17.5161
17.0465
16.5774
16.1091
15.6418
15.1756
14.7108
14.2477
13.7866
13.3277
12.8714
12.4181
11.9681
11.5218
11.0796
10.6421
10.2095
9.7824
9.3613
8.9465
8.5386
8.1380
7.7453
7.3607
6.9848
6.6180
6.2606
5.9131
5.5758
5.2490
4.9330
4.6279
4.3341
4.0517
3.7808
3.5214
3.2737
3.0376
2.8131
2.6000
2.3983
2.2078
2.0283
1.8595
1.7012
1.5531
1.4149
1.2862
1.1666
1.0558
0.9535
0.8591
0.7723
0.6928
0.6200
0.5535
0.4931
0.4382
0.3885
0.3436
0.3032
0.2669
0.2344
0.2053
0.1794
0.1564
0.1360
0.1180
0.1021
0.0881
0.0759
0.0652
0.0558
0.0477
0.0407
0.0346
0.0293
0.0248
0.0209
0.0176
0.0148
0.0124
0.0103
0.0086
0.0071
0.0059
0.0049
0.0040
0.0033
0.0027
0.0022
0.0018
0.0015
0.0012
0.0010
0.0008
0.0006
0.0005
0.0004
0.0003
0.0003
0.0002
0.0002
0.0001
0.0001
0.0001
0.0001
0.0000
0.0000
0.0000
0.0000
0.0000
0.0000
0.0000
0.0000
0.0000
0.0000
0.0000
0.0000
0.0000
0.0000
0.0000
0.0000
0.0000
0.0000
0.0000
0.0000
0.0000
0.0000
0.0000
0.0000
0.0000
0.0000
0.0000
0.0000
0.0000
0.0000
0.0000
0.0000
0.0000
0.0000
0.0000
0.0000
0.0000
0.0000
0.0000
0.0000
0.0000
0.0000
0.0000
0.0000
0.0000
0.0000
0.0000
0.0000
0.0000
0.0000
0.0000
0.0000
0.0000
0.0000
0.0000
0.0000
0.0000
0.0000
0.0000
0.0000
0.0000
0.0000
0.0000
0.0000
0.0000
0.0000
0.0000
0.0000
0.0000
0.0000
0.0000
0.0000
0.0000
0.0000
0.0000
0.0000
0.0000
0.0000
0.0000
0.0000
0.0000
0.0000
0.0000
0.0000
0.0000
0.0000
0.0000
0.0000
0.0000
0.0000
0.0000
0.0000
0.0000
0.0000
0.0000
0.0000
0.0000
0.0000
0.0000
0.0000
0.0000
0.0000
0.0000
0.0000
0.0000
0.0000
0.0000
0.0000
0.0000
0.0000
0.0000
0.0000
0.0000
0.0000
0.0000
0.0000
0.0000
0.0000
0.0000
0.0000
0.0000
0.0000
0.0000
0.0000
67.6065
67.6065
72.0322
83.9310
106.7440
137.0559
142.4364
134.7915
123.0460
111.1272
100.3868
91.1233
83.2613
76.6185
71.0019
66.2381
62.1806
58.7077
55.7197
53.1344
50.8846
48.9147
47.1789
45.6392
44.2642
43.0275
41.9074
40.8855
39.9466
39.0779
38.2686
37.5097
36.7935
36.1136
35.4646
34.8419
34.2417
33.6606
33.0958
32.5449
32.0060
31.4773
30.9574
30.4449
29.9389
29.4383
28.9424
28.4505
27.9620
27.4765
26.9934
26.5125
26.0332
25.5555
25.0790
24.6035
24.1289
23.6549
23.1815
22.7085
22.2358
21.7634
21.2912
20.8191
20.3472
19.8754
19.4037
18.9322
18.4610
17.9900
17.5194
17.0494
16.5800
16.1114
15.6437
15.1773
14.7123
14.2491
13.7878
13.3287
12.8723
12.4189
11.9688
11.5224
11.0802
10.6426
10.2099
9.7828
9.3616
8.9468
8.5389
8.1383
7.7455
7.3609
6.9850
6.6181
6.2608
5.9132
5.5759
5.2491
4.9330
4.6280
4.3342
4.0518
3.7808
3.5215
3.2738
3.0377
2.8131
2.6001
2.3984
2.2078
2.0283
1.8595
1.7012
1.5531
1.4149
1.2862
1.1666
1.0559
0.9535
0.8591
0.7724
0.6928
0.6200
0.5535
0.4931
0.4382
0.3885
0.3436
0.3032
0.2669
0.2344
0.2053
0.1794
0.1564
0.1360
0.1180
0.1021
0.0881
0.0759
0.0652
0.0558
0.0477
0.0407
0.0346
0.0293
0.0248
0.0209
0.0176
0.0148
0.0124
0.0103
0.0086
0.0071
0.0059
0.0049
0.0040
0.0033
0.0027
0.0022
0.0018
0.0015
0.0012
0.0010
0.0008
0.0006
0.0005
0.0004
0.0003
0.0003
0.0002
0.0002
0.0001
0.0001
0.0001
0.0001
0.0000
0.0000
0.0000
0.0000
0.0000
0.0000
0.0000
0.0000
0.0000
0.0000
0.0000
0.0000
0.0000
0.0000
0.0000
0.0000
0.0000
0.0000
0.0000
0.0000
0.0000
0.0000
0.0000
0.0000
0.0000
0.0000
0.0000
0.0000
0.0000
0.0000
0.0000
0.0000
0.0000
0.0000
0.0000
0.0000
0.0000
0.0000
0.0000
0.0000
0.0000
0.0000
0.0000
0.0000
0.0000
0.0000
0.0000
0.0000
0.0000
0.0000
0.0000
0.0000
0.0000
0.0000
0.0000
0.0000
0.0000
0.0000
0.0000
0.0000
0.0000
0.0000
0.0000
0.0000
0.0000
0.0000
0.0000
0.0000
0.0000
0.0000
0.0000
0.0000
0.0000
0.0000
0.0000
0.0000
0.0000
0.0000
0.0000
0.0000
0.0000
0.0000
0.0000
0.0000
0.0000
0.0000
0.0000
0.0000
0.0000
0.0000
0.0000
0.0000
0.0000
0.0000
0.0000
0.0000
0.0000
0.0000
0.0000
0.0000
0.0000
0.0000
0.0000
0.0000
0.0000
0.0000
0.0000
0.0000
0.0000
0.0000
0.0000
0.0000
0.0000
0.0000
0.0000
0.0000
0.0000
0.0000
0.0000
0.0000
0.0000
0.0000
0.0000
0.0000
82.4599
82.4599
90.9892
116.1466
173.6856
275.0783
250.9185
211.8897
178.4825
152.3954
132.1565
116.2425
103.5225
93.2035
84.7269
77.6906
71.7977
66.8239
62.5964
58.9798
55.8665
53.1702