# vtk DataFile Version 5.0
Example 3D regular grid VTK file.
ASCII
DATASET UNSTRUCTURED_GRID
POINTS 90601 float
0 0 0
0 10 0
0 20 0
0 30 0
0 40 0
0 50 0
0 60 0
0 70 0
0 80 0
0 90 0
0 100 0
0 110 0
0 120 0
0 130 0
0 140 0
0 150 0
0 160 0
0 170 0
0 180 0
0 190 0
0 200 0
0 210 0
0 220 0
0 230 0
0 240 0
0 250 0
0 260 0
0 270 0
0 280 0
0 290 0
0 300 0
0 310 0
0 320 0
0 330 0
0 340 0
0 350 0
0 360 0
0 370 0
0 380 0
0 390 0
0 400 0
0 410 0
0 420 0
0 430 0
0 440 0
0 450 0
0 460 0
0 470 0
0 480 0
0 490 0
0 500 0
0 510 0
0 520 0
0 530 0
0 540 0
0 550 0
0 560 0
0 570 0
0 580 0
0 590 0
0 600 0
0 610 0
0 620 0
0 630 0
0 640 0
0 650 0
0 660 0
0 670 0
0 680 0
0 690 0
0 700 0
0 710 0
0 720 0
0 730 0
0 740 0
0 750 0
0 760 0
0 770 0
0 780 0
0 790 0
0 800 0
0 810 0
0 820 0
0 830 0
0 840 0
0 850 0
0 860 0
0 870 0
0 880 0
0 890 0
0 900 0
0 910 0
0 920 0
0 930 0
0 940 0
0 950 0
0 960 0
0 970 0
0 980 0
0 990 0
0 1000 0
0 1010 0
0 1020 0
0 1030 0
0 1040 0
0 1050 0
0 1060 0
0 1070 0
0 1080 0
0 1090 0
0 1100 0
0 1110 0
0 1120 0
0 1130 0
0 1140 0
0 1150 0
0 1160 0
0 1170 0
0 1180 0
0 1190 0
0 1200 0
0 1210 0
0 1220 0
0 1230 0
0 1240 0
0 1250 0
0 1260 0
0 1270 0
0 1280 0
0 1290 0
0 1300 0
0 1310 0
0 1320 0
0 1330 0
0 1340 0
0 1350 0
0 1360 0
0 1370 0
0 1380 0
0 1390 0
0 1400 0
0 1410 0
0 1420 0
0 1430 0
0 1440 0
0 1450 0
0 1460 0
0 1470 0
0 1480 0
0 1490 0
0 1500 0
0 1510 0
0 1520 0
0 1530 0
0 1540 0
0 1550 0
0 1560 0
0 1570 0
0 1580 0
0 1590 0
0 1600 0
0 1610 0
0 1620 0
0 1630 0
0 1640 0
0 1650 0
0 1660 0
0 1670 0
0 1680 0
0 1690 0
0 1700 0
0 1710 0
0 1720 0
0 1730 0
0 1740 0
0 1750 0
0 1760 0
0 1770 0
0 1780 0
0 1790 0
0 1800 0
0 1810 0
0 1820 0
0 1830 0
0 1840 0
0 1850 0
0 1860 0
0 1870 0
0 1880 0
0 1890 0
0 1900 0
0 1910 0
0 1920 0
0 1930 0
0 1940 0
0 1950 0
0 1960 0
0 1970 0
0 1980 0
0 1990 0
0 2000 0
0 2010 0
0 2020 0
0 2030 0
0 2040 0
0 2050 0
0 2060 0
0 2070 0
0 2080 0
0 2090 0
0 2100 0
0 2110 0
0 2120 0
0 2130 0
0 2140 0
0 2150 0
0 2160 0
0 2170 0
0 2180 0
0 2190 0
0 2200 0
0 2210 0
0 2220 0
0 2230 0
0 2240 0
0 2250 0
0 2260 0
0 2270 0
0 2280 0
0 2290 0
0 2300 0
0 2310 0
0 2320 0
0 2330 0
0 2340 0
0 2350 0
0 2360 0
0 2370 0
0 2380 0
0 2390 0
0 2400 0
0 2410 0
0 2420 0
0 2430 0
0 2440 0
0 2450 0
0 2460 0
0 2470 0
0 2480 0
0 2490 0
0 2500 0
0 2510 0
0 2520 0
0 2530 0
0 2540 0
0 2550 0
0 2560 0
0 2570 0
0 2580 0
0 2590 0
0 2600 0
0 2610 0
0 2620 0
0 2630 0
0 2640 0
0 2650 0
0 2660 0
0 2670 0
0 2680 0
0 2690 0
0 2700 0
0 2710 0
0 2720 0
0 2730 0
0 2740 0
0 2750 0
0 2760 0
0 2770 0
0 2780 0
0 2790 0
0 2800 0
0 2810 0
0 2820 0
0 2830 0
0 2840 0
0 2850 0
0 2860 0
0 2870 0
0 2880 0
0 2890 0
0 2900 0
0 2910 0
0 2920 0
0 2930 0
0 2940 0
0 2950 0
0 2960 0
0 2970 0
0 2980 0
0 2990 0
0 3000 0
10 0 0
10 10 0
10 20 0
10 30 0
10 40 0
10 50 0
10 60 0
10 70 0
10 80 0
10 90 0
10 100 0
10 110 0
10 120 0
10 130 0
10 140 0
10 150 0
10 160 0
10 170 0
10 180 0
10 190 0
10 200 0
10 210 0
10 220 0
10 230 0
10 240 0
10 250 0
10 260 0
10 270 0
10 280 0
10 290 0
10 300 0
10 310 0
10 320 0
10 330 0
10 340 0
10 350 0
10 360 0
10 370 0
10 380 0
10 390 0
10 400 0
10 410 0
10 420 0
10 430 0
10 440 0
10 450 0
10 460 0
10 470 0
10 480 0
10 490 0
10 500 0
10 510 0
10 520 0
10 530 0
10 540 0
10 550 0
10 560 0
10 570 0
10 580 0
10 590 0
10 600 0
10 610 0
10 620 0
10 630 0
10 640 0
10 650 0
10 660 0
10 670 0
10 680 0
10 690 0
10 700 0
10 710 0
10 720 0
10 730 0
10 740 0
10 750 0
10 760 0
10 770 0
10 780 0
10 790 0
10 800 0
10 810 0
10 820 0
10 830 0
10 840 0
10 850 0
10 860 0
10 870 0
10 880 0
10 890 0
10 900 0
10 910 0
10 920 0
10 930 0
10 940 0
10 950 0
10 960 0
10 970 0
10 980 0
10 990 0
10 1000 0
10 1010 0
10 1020 0
10 1030 0
10 1040 0
10 1050 0
10 1060 0
10 1070 0
10 1080 0
10 1090 0
10 1100 0
10 1110 0
10 1120 0
10 1130 0
10 1140 0
10 1150 0
10 1160 0
10 1170 0
10 1180 0
10 1190 0
10 1200 0
10 1210 0
10 1220 0
10 1230 0
10 1240 0
10 1250 0
10 1260 0
10 1270 0
10 1280 0
10 1290 0
10 1300 0
10 1310 0
10 1320 0
10 1330 0
10 1340 0
10 1350 0
10 1360 0
10 1370 0
10 1380 0
10 1390 0
10 1400 0
10 1410 0
10 1420 0
10 1430 0
10 1440 0
10 1450 0
10 1460 0
10 1470 0
10 1480 0
10 1490 0
10 1500 0
10 1510 0
10 1520 0
10 1530 0
10 1540 0
10 1550 0
10 1560 0
10 1570 0
10 1580 0
10 1590 0
10 1600 0
10 1610 0
10 1620 0
10 1630 0
10 1640 0
10 1650 0
10 1660 0
10 1670 0
10 1680 0
10 1690 0
10 1700 0
10 1710 0
10 1720 0
10 1730 0
10 1740 0
10 1750 0
10 1760 0
10 1770 0
10 1780 0
10 1790 0
10 1800 0
10 1810 0
10 1820 0
10 1830 0
10 1840 0
10 1850 0
10 1860 0
10 1870 0
10 1880 0
10 1890 0
10 1900 0
10 1910 0
10 1920 0
10 1930 0
10 1940 0
10 1950 0
10 1960 0
10 1970 0
10 1980 0
10 1990 0
10 2000 0
10 2010 0
10 2020 0
10 2030 0
10 2040 0
10 2050 0
10 2060 0
10 2070 0
10 2080 0
10 2090 0
10 2100 0
10 2110 0
10 2120 0
10 2130 0
10 2140 0
10 2150 0
10 2160 0
10 2170 0
10 2180 0
10 2190 0
10 2200 0
10 2210 0
10 2220 0
10 2230 0
10 2240 0
10 2250 0
10 2260 0
10 2270 0
10 2280 0
10 2290 0
10 2300 0
10 2310 0
10 2320 0
10 2330 0
10 2340 0
10 2350 0
10 2360 0
10 2370 0
10 2380 0
10 2390 0
10 2400 0
10 2410 0
10 2420 0
10 2430 0
10 2440 0
10 2450 0
10 2460 0
10 2470 0
10 2480 0
10 2490 0
10 2500 0
10 2510 0
10 2520 0
10 2530 0
10 2540 0
10 2550 0
10 2560 0
10 2570 0
10 2580 0
10 2590 0
10 2600 0
10 2610 0
10 2620 0
10 2630 0
10 2640 0
10 2650 0
10 2660 0
10 2670 0
10 2680 0
10 2690 0
10 2700 0
10 2710 0
10 2720 0
10 2730 0
10 2740 0
10 2750 0
10 2760 0
10 2770 0
10 2780 0
10 2790 0
10 2800 0
10 2810 0
10 2820 0
10 2830 0
10 2840 0
10 2850 0
10 2860 0
10 2870 0
10 2880 0
10 2890 0
10 2900 0
10 2910 0
10 2920 0
10 2930 0
10 2940 0
10 2950 0
10 2960 0
10 2970 0
10 2980 0
10 2990 0
10 3000 0
20 0 0
20 10 0
20 20 0
20 30 0
20 40 0
20 50 0
20 60 0
20 70 0
20 80 0
20 90 0
20 100 0
20 110 0
20 120 0
20 130 0
20 140 0
20 150 0
20 160 0
20 170 0
20 180 0
20 190 0
20 200 0
20 210 0
20 220 0
20 230 0
20 240 0
20 250 0
20 260 0
20 270 0
20 280 0
20 290 0
20 300 0
20 310 0
20 320 0
20 330 0
20 340 0
20 350 0
20 360 0
20 370 0
20 380 0
20 390 0
20 400 0
20 410 0
20 420 0
20 430 0
20 440 0
20 450 0
20 460 0
20 470 0
20 480 0
20 490 0
20 500 0
20 510 0
20 520 0
20 530 0
20 540 0
20 550 0
20 560 0
20 570 0
20 580 0
20 590 0
20 600 0
20 610 0
20 620 0
20 630 0
20 640 0
20 650 0
20 660 0
20 670 0
20 680 0
20 690 0
20 700 0
20 710 0
20 720 0
20 730 0
20 740 0
20 750 0
20 760 0
20 770 0
20 780 0
20 790 0
20 800 0
20 810 0
20 820 0
20 830 0
20 840 0
20 850 0
20 860 0
20 870 0
20 880 0
20 890 0
20 900 0
20 910 0
20 920 0
20 930 0
20 940 0
20 950 0
20 960 0
20 970 0
20 980 0
20 990 0
20 1000 0
20 1010 0
20 1020 0
20 1030 0
20 1040 0
20 1050 0
20 1060 0
20 1070 0
20 1080 0
20 1090 0
20 1100 0
20 1110 0
20 1120 0
20 1130 0
20 1140 0
20 1150 0
20 1160 0
20 1170 0
20 1180 0
20 1190 0
20 1200 0
20 1210 0
20 1220 0
20 1230 0
20 1240 0
20 1250 0
20 1260 0
20 1270 0
20 1280 0
20 1290 0
20 1300 0
20 1310 0
20 1320 0
20 1330 0
20 1340 0
20 1350 0
20 1360 0
20 1370 0
20 1380 0
20 1390 0
20 1400 0
20 1410 0
20 1420 0
20 1430 0
20 1440 0
20 1450 0
20 1460 0
20 1470 0
20 1480 0
20 1490 0
20 1500 0
20 1510 0
20 1520 0
20 1530 0
20 1540 0
20 1550 0
20 1560 0
20 1570 0
20 1580 0
20 1590 0
20 1600 0
20 1610 0
20 1620 0
20 1630 0
20 1640 0
20 1650 0
20 1660 0
20 1670 0
20 1680 0
20 1690 0
20 1700 0
20 1710 0
20 1720 0
20 1730 0
20 1740 0
20 1750 0
20 1760 0
20 1770 0
20 1780 0
20 1790 0
20 1800 0
20 1810 0
20 1820 0
20 1830 0
20 1840 0
20 1850 0
20 1860 0
20 1870 0
20 1880 0
20 1890 0
20 1900 0
20 1910 0
20 1920 0
20 1930 0
20 1940 0
20 1950 0
20 1960 0
20 1970 0
20 1980 0
20 1990 0
20 2000 0
20 2010 0
20 2020 0
20 2030 0
20 2040 0
20 2050 0
20 2060 0
20 2070 0
20 2080 0
20 2090 0
20 2100 0
20 2110 0
20 2120 0
20 2130 0
20 2140 0
20 2150 0
20 2160 0
20 2170 0
20 2180 0
20 2190 0
20 2200 0
20 2210 0
20 2220 0
20 2230 0
20 2240 0
20 2250 0
20 2260 0
20 2270 0
20 2280 0
20 2290 0
20 2300 0
20 2310 0
20 2320 0
20 2330 0
20 2340 0
20 2350 0
20 2360 0
20 2370 0
20 2380 0
20 2390 0
20 2400 0
20 2410 0
20 2420 0
20 2430 0
20 2440 0
20 2450 0
20 2460 0
20 2470 0
20 2480 0
20 2490 0
20 2500 0
20 2510 0
20 2520 0
20 2530 0
20 2540 0
20 2550 0
20 2560 0
20 2570 0
20 2580 0
20 2590 0
20 2600 0
20 2610 0
20 2620 0
20 2630 0
20 2640 0
20 2650 0
20 2660 0
20 2670 0
20 2680 0
20 2690 0
20 2700 0
20 2710 0
20 2720 0
20 2730 0
20 2740 0
20 2750 0
20 2760 0
20 2770 0
20 2780 0
20 2790 0
20 2800 0
20 2810 0
20 2820 0
20 2830 0
20 2840 0
20 2850 0
20 2860 0
20 2870 0
20 2880 0
20 2890 0
20 2900 0
20 2910 0
20 2920 0
20 2930 0
20 2940 0
20 2950 0
20 2960 0
20 2970 0
20 2980 0
20 2990 0
20 3000 0
30 0 0
30 10 0
30 20 0
30 30 0
30 40 0
30 50 0
30 60 0
30 70 0
30 80 0
30 90 0
30 100 0
30 110 0
30 120 0
30 130 0
30 140 0
30 150 0
30 160 0
30 170 0
30 180 0
30 190 0
30 200 0
30 210 0
30 220 0
30 230 0
30 240 0
30 250 0
30 260 0
30 270 0
30 280 0
30 290 0
30 300 0
30 310 0
30 320 0
30 330 0
30 340 0
30 350 0
30 360 0
30 370 0
30 380 0
30 390 0
30 400 0
30 410 0
30 420 0
30 430 0
30 440 0
30 450 0
30 460 0
30 470 0
30 480 0
30 490 0
30 500 0
30 510 0
30 520 0
30 530 0
30 540 0
30 550 0
30 560 0
30 570 0
30 580 0
30 590 0
30 600 0
30 610 0
30 620 0
30 630 0
30 640 0
30 650 0
30 660 0
30 670 0
30 680 0
30 690 0
30 700 0
30 710 0
30 720 0
30 730 0
30 740 0
30 750 0
30 760 0
30 770 0
30 780 0
30 790 0
30 800 0
30 810 0
30 820 0
30 830 0
30 840 0
30 850 0
30 860 0
30 870 0
30 880 0
30 890 0
30 900 0
30 910 0
30 920 0
30 930 0
30 940 0
30 950 0
30 960 0
30 970 0
30 980 0
30 990 0
30 1000 0
30 1010 0
30 1020 0
30 1030 0
30 1040 0
30 1050 0
30 1060 0
30 1070 0
30 1080 0
30 1090 0
30 1100 0
30 1110 0
30 1120 0
30 1130 0
30 1140 0
30 1150 0
30 1160 0
30 1170 0
30 1180 0
30 1190 0
30 1200 0
30 1210 0
30 1220 0
30 1230 0
30 1240 0
30 1250 0
30 1260 0
30 1270 0
30 1280 0
30 1290 0
30 1300 0
30 1310 0
30 1320 0
30 1330 0
30 1340 0
30 1350 0
30 1360 0
30 1370 0
30 1380 0
30 1390 0
30 1400 0
30 1410 0
30 1420 0
30 1430 0
30 1440 0
30 1450 0
30 1460 0
30 1470 0
30 1480 0
30 1490 0
30 1500 0
30 1510 0
30 1520 0
30 1530 0
30 1540 0
30 1550 0
30 1560 0
30 1570 0
30 1580 0
30 1590 0
[...]
POINT_DATA 90601
SCALARS P float
LOOKUP_TABLE default
43.4764
43.4764
43.5133
43.6014
43.7494
43.9561
44.2092
44.4878
44.7676
45.0255
45.2433
45.4085
45.5144
45.5586
45.5427
45.4700
45.3452
45.1739
44.9613
44.7127
44.4328
44.1260
43.7961
43.4466
43.0801
42.6994
42.3064
41.9031
41.4909
41.0712
40.6451
40.2136
39.7774
39.3372
38.8937
38.4473
37.9983
37.5473
37.0944
36.6400
36.1842
35.7272
35.2693
34.8104
34.3508
33.8906
33.4297
32.9684
32.5065
32.0443
31.5817
31.1187
30.6555
30.1919
29.7281
29.2639
28.7996
28.3349
27.8700
27.4049
26.9395
26.4738
26.0079
25.5417
25.0753
24.6086
24.1416
23.6744
23.2070
22.7393
22.2714
21.8034
21.3352
20.8669
20.3986
19.9303
19.4621
18.9941
18.5264
18.0591
17.5923
17.1263
16.6611
16.1970
15.7341
15.2727
14.8131
14.3554
13.9000
13.4472
12.9973
12.5505
12.1074
11.6682
11.2333
10.8031
10.3780
9.9584
9.5447
9.1374
8.7367
8.3432
7.9572
7.5791
7.2093
6.8482
6.4960
6.1531
5.8199
5.4964
5.1831
4.8802
4.5877
4.3058
4.0347
3.7745
3.5251
3.2866
3.0590
2.8422
2.6361
2.4405
2.2553
2.0804
1.9155
1.7604
1.6147
1.4783
1.3508
1.2318
1.1212
1.0184
0.9232
0.8353
0.7541
0.6795
0.6110
0.5482
0.4909
0.4386
0.3911
0.3480
0.3089
0.2737
0.2420
0.2134
0.1878
0.1650
0.1446
0.1264
0.1103
0.0960
0.0834
0.0722
0.0625
0.0539
0.0464
0.0398
0.0341
0.0292
0.0249
0.0212
0.0180
0.0152
0.0129
0.0108
0.0091
0.0076
0.0064
0.0053
0.0045
0.0037
0.0031
0.0025
0.0021
0.0017
0.0014
0.0012
0.0009
0.0008
0.0006
0.0005
0.0004
0.0003
0.0003
0.0002
0.0002
0.0001
0.0001
0.0001
0.0001
0.0001
0.0000
0.0000
0.0000
0.0000
0.0000
0.0000
0.0000
0.0000
0.0000
0.0000
0.0000
0.0000
0.0000
0.0000
0.0000
0.0000
0.0000
0.0000
0.0000
0.0000
0.0000
0.0000
0.0000
0.0000
0.0000
0.0000
0.0000
0.0000
0.0000
0.0000
0.0000
0.0000
0.0000
0.0000
0.0000
0.0000
0.0000
0.0000
0.0000
0.0000
0.0000
0.0000
0.0000
0.0000
0.0000
0.0000
0.0000
0.0000
0.0000
0.0000
0.0000
0.0000
0.0000
0.0000
0.0000
0.0000
0.0000
0.0000
0.0000
0.0000
0.0000
0.0000
0.0000
0.0000
0.0000
0.0000
0.0000
0.0000
0.0000
0.0000
0.0000
0.0000
0.0000
0.0000
0.0000
0.0000
0.0000
0.0000
0.0000
0.0000
0.0000
0.0000
0.0000
0.0000
0.0000
0.0000
0.0000
0.0000
0.0000
0.0000
0.0000
0.0000
0.0000
0.0000
0.0000
0.0000
0.0000
0.0000
0.0000
0.0000
0.0000
0.0000
0.0000
0.0000
0.0000
0.0000
0.0000
0.0000
0.0000
43.4764
43.4764
43.5133
43.6014
43.7494
43.9561
44.2092
44.4878
44.7676
45.0255
45.2433
45.4085
45.5144
45.5586
45.5427
45.4700
45.3452
45.1739
44.9613
44.7127
44.4328
44.1260
43.7961
43.4466
43.0801
42.6994
42.3064
41.9031
41.4909
41.0712
40.6451
40.2136
39.7774
39.3372
38.8937
38.4473
37.9983
37.5473
37.0944
36.6400
36.1842
35.7272
35.2693
34.8104
34.3508
33.8906
33.4297
32.9684
32.5065
32.0443
31.5817
31.1187
30.6555
30.1919
29.7281
29.2639
28.7996
28.3349
27.8700
27.4049
26.9395
26.4738
26.0079
25.5417
25.0753
24.6086
24.1416
23.6744
23.2070
22.7393
22.2714
21.8034
21.3352
20.8669
20.3986
19.9303
19.4621
18.9941
18.5264
18.0591
17.5923
17.1263
16.6611
16.1970
15.7341
15.2727
14.8131
14.3554
13.9000
13.4472
12.9973
12.5505
12.1074
11.6682
11.2333
10.8031
10.3780
9.9584
9.5447
9.1374
8.7367
8.3432
7.9572
7.5791
7.2093
6.8482
6.4960
6.1531
5.8199
5.4964
5.1831
4.8802
4.5877
4.3058
4.0347
3.7745
3.5251
3.2866
3.0590
2.8422
2.6361
2.4405
2.2553
2.0804
1.9155
1.7604
1.6147
1.4783
1.3508
1.2318
1.1212
1.0184
0.9232
0.8353
0.7541
0.6795
0.6110
0.5482
0.4909
0.4386
0.3911
0.3480
0.3089
0.2737
0.2420
0.2134
0.1878
0.1650
0.1446
0.1264
0.1103
0.0960
0.0834
0.0722
0.0625
0.0539
0.0464
0.0398
0.0341
0.0292
0.0249
0.0212
0.0180
0.0152
0.0129
0.0108
0.0091
0.0076
0.0064
0.0053
0.0045
0.0037
0.0031
0.0025
0.0021
0.0017
0.0014
0.0012
0.0009
0.0008
0.0006
0.0005
0.0004
0.0003
0.0003
0.0002
0.0002
0.0001
0.0001
0.0001
0.0001
0.0001
0.0000
0.0000
0.0000
0.0000
0.0000
0.0000
0.0000
0.0000
0.0000
0.0000
0.0000
0.0000
0.0000
0.0000
0.0000
0.0000
0.0000
0.0000
0.0000
0.0000
0.0000
0.0000
0.0000
0.0000
0.0000
0.0000
0.0000
0.0000
0.0000
0.0000
0.0000
0.0000
0.0000
0.0000
0.0000
0.0000
0.0000
0.0000
0.0000
0.0000
0.0000
0.0000
0.0000
0.0000
0.0000
0.0000
0.0000
0.0000
0.0000
0.0000
0.0000
0.0000
0.0000
0.0000
0.0000
0.0000
0.0000
0.0000
0.0000
0.0000
0.0000
0.0000
0.0000
0.0000
0.0000
0.0000
0.0000
0.0000
0.0000
0.0000
0.0000
0.0000
0.0000
0.0000
0.0000
0.0000
0.0000
0.0000
0.0000
0.0000
0.0000
0.0000
0.0000
0.0000
0.0000
0.0000
0.0000
0.0000
0.0000
0.0000
0.0000
0.0000
0.0000
0.0000
0.0000
0.0000
0.0000
0.0000
0.0000
0.0000
0.0000
0.0000
0.0000
0.0000
0.0000
0.0000
0.0000
0.0000
0.0000
43.7676
43.7676
43.8164
43.9320
44.1234
44.3840
44.6909
45.0119
45.3154
45.5762
45.7781
45.9129
45.9789
45.9784
45.9163
45.7987
45.6319
45.4221
45.1752
44.8962
44.5900
44.2603
43.9108
43.5444
43.1636
42.7705
42.3671
41.9549
41.5352
41.1090
40.6775
40.2413
39.8011
39.3576
38.9111
38.4622
38.0112
37.5584
37.1040
36.6482
36.1913
35.7334
35.2746
34.8150
34.3548
33.8940
33.4327
32.9709
32.5088
32.0462
31.5834
31.1202
30.6567
30.1930
29.7290
29.2648
28.8003
28.3356
27.8706
27.4054
26.9399
26.4742
26.0082
25.5420
25.0755
24.6088
24.1418
23.6746
23.2071
22.7394
22.2715
21.8035
21.3353
20.8670
20.3987
19.9304
19.4622
18.9941
18.5264
18.0591
17.5924
17.1263
16.6611
16.1970
15.7341
15.2727
14.8131
14.3554
13.9000
13.4472
12.9973
12.5505
12.1074
11.6682
11.2333
10.8031
10.3780
9.9584
9.5447
9.1374
8.7367
8.3432
7.9572
7.5791
7.2093
6.8482
6.4960
6.1531
5.8199
5.4964
5.1831
4.8802
4.5877
4.3058
4.0347
3.7745
3.5251
3.2866
3.0590
2.8422
2.6361
2.4405
2.2553
2.0804
1.9155
1.7604
1.6147
1.4783
1.3508
1.2318
1.1212
1.0184
0.9232
0.8353
0.7541
0.6795
0.6110
0.5482
0.4909
0.4386
0.3911
0.3480
0.3089
0.2737
0.2420
0.2134
0.1878
0.1650
0.1446
0.1264
0.1103
0.0960
0.0834
0.0722
0.0625
0.0539
0.0464
0.0398
0.0341
0.0292
0.0249
0.0212
0.0180
0.0152
0.0129
0.0108
0.0091
0.0076
0.0064
0.0053
0.0045
0.0037
0.0031
0.0025
0.0021
0.0017
0.0014
0.0012
0.0009
0.0008
0.0006
0.0005
0.0004
0.0003
0.0003
0.0002
0.0002
0.0001
0.0001
0.0001
0.0001
0.0001
0.0000
0.0000
0.0000
0.0000
0.0000
0.0000
0.0000
0.0000
0.0000
0.0000
0.0000
0.0000
0.0000
0.0000
0.0000
0.0000
0.0000
0.0000
0.0000
0.0000
0.0000
0.0000
0.0000
0.0000
0.0000
0.0000
0.0000
0.0000
0.0000
0.0000
0.0000
0.0000
0.0000
0.0000
0.0000
0.0000
0.0000
0.0000
0.0000
0.0000
0.0000
0.0000
0.0000
0.0000
0.0000
0.0000
0.0000
0.0000
0.0000
0.0000
0.0000
0.0000
0.0000
0.0000
0.0000
0.0000
0.0000
0.0000
0.0000
0.0000
0.0000
0.0000
0.0000
0.0000
0.0000
0.0000
0.0000
0.0000
0.0000
0.0000
0.0000
0.0000
0.0000
0.0000
0.0000
0.0000
0.0000
0.0000
0.0000
0.0000
0.0000
0.0000
0.0000
0.0000
0.0000
0.0000
0.0000
0.0000
0.0000
0.0000
0.0000
0.0000
0.0000
0.0000
0.0000
0.0000
0.0000
0.0000
0.0000
0.0000
0.0000
0.0000
0.0000
0.0000
0.0000
0.0000
0.0000
0.0000
0.0000
44.5442
44.5442
44.6296
44.8305
45.1561
45.5807
46.0441
46.4793
46.8360
47.0878
47.2289
47.2662
47.2131
47.0844
46.8940
46.6540
46.3744
46.0629
45.7258
45.3679
44.9932
44.6046
44.2044
43.7947
43.3770
42.9526
42.5225
42.0875
41.6484
41.2059
40.7603
40.3122
39.8619
39.4097
38.9559
38.5007
38.0443
37.5868
37.1285
36.6693
36.2095
35.7491
35.2882
34.8268
34.3650
33.9028
33.4403
32.9776
32.5145
32.0512
31.5877
31.1240
30.6600
30.1959
29.7315
29.2669
28.8022
28.3372
27.8720
27.4066
26.9410
26.4751
26.0091
25.5427
25.0762
24.6093
24.1423
23.6750
23.2075
22.7397
22.2718
21.8037
21.3355
20.8672
20.3988
19.9305
19.4623
18.9943
18.5265
18.0592
17.5925
17.1264
16.6612
16.1971
15.7342
15.2728
14.8131
14.3555
13.9001
13.4472
12.9973
12.5506
12.1074
11.6682
11.2333
10.8031
10.3780
9.9584
9.5448
9.1374
8.7367
8.3432
7.9572
7.5791
7.2093
6.8482
6.4960
6.1531
5.8199
5.4964
5.1831
4.8802
4.5877
4.3058
4.0347
3.7745
3.5251
3.2866
3.0590
2.8422
2.6361
2.4405
2.2553
2.0804
1.9155
1.7604
1.6147
1.4783
1.3508
1.2318
1.1212
1.0184
0.9232
0.8353
0.7541
0.6795
0.6110
0.5482
0.4909
0.4386
0.3911
0.3480
0.3089
0.2737
0.2420
0.2134
0.1878
0.1650
0.1446
0.1264
0.1103
0.0960
0.0834
0.0722
0.0625
0.0539
0.0464
0.0398
0.0341
0.0292
0.0249
0.0212
0.0180
0.0152
0.0129
0.0108
0.0091
0.0076
0.0064
0.0053
0.0045
0.0037
0.0031
0.0025
0.0021
0.0017
0.0014
0.0012
0.0009
0.0008
0.0006
0.0005
0.0004
0.0003
0.0003
0.0002
0.0002
0.0001
0.0001
0.0001
0.0001
0.0001
0.0000
0.0000
0.0000
0.0000
0.0000
0.0000
0.0000
0.0000
0.0000
0.0000
0.0000
0.0000
0.0000
0.0000
0.0000
0.0000
0.0000
0.0000
0.0000
0.0000
0.0000
0.0000
0.0000
0.0000
0.0000
0.0000
0.0000
0.0000
0.0000
0.0000
0.0000
0.0000
0.0000
0.0000
0.0000
0.0000
0.0000
0.0000
0.0000
0.0000
0.0000
0.0000
0.0000
0.0000
0.0000
0.0000
0.0000
0.0000
0.0000
0.0000
0.0000
0.0000
0.0000
0.0000
0.0000
0.0000
0.0000
0.0000
0.0000
0.0000
0.0000
0.0000
0.0000
0.0000
0.0000
0.0000
0.0000
0.0000
0.0000
0.0000
0.0000
0.0000
0.0000
0.0000
0.0000
0.0000
0.0000
0.0000
0.0000
0.0000
0.0000
0.0000
0.0000
0.0000
0.0000
0.0000
0.0000
0.0000
0.0000
0.0000
0.0000
0.0000
0.0000
0.0000
0.0000
0.0000
0.0000
0.0000
0.0000
0.0000
0.0000
0.0000
0.0000
0.0000
0.0000
0.0000
0.0000
0.0000
0.0000
46.1127
46.1127
46.2910
46.7095
47.3787
48.2131
49.0381
49.6988
50.1171
50.2853
50.2372
50.0216
49.6863
49.2712
48.8061
48.3124
47.8041
47.2902
46.7763
46.2653
45.7587
45.2571
44.7605
44.2687
43.7810
43.2971
42.8165
42.3386
41.8630
41.3894
40.9174
40.4468
39.9773
39.5088
39.0410
38.5738
38.1072
37.6410
37.1752
36.7096
36.2443
35.7792
35.3141
34.8492
34.3844
33.9197
33.4549
32.9902
32.5255
32.0608
31.5960
31.1312
30.6663
30.2013
29.7363
29.2711
28.8058
28.3404
27.8748
27.4090
26.9431
26.4770
26.0107
25.5441
25.0774
24.6104
24.1432
23.6758
23.2082
22.7404
22.2724
21.8042
21.3359
20.8676
20.3992
19.9308
19.4625
18.9945
18.5267
18.0594
17.5926
17.1265
16.6613
16.1972
15.7343
15.2729
14.8132
14.3555
13.9001
13.4473
12.9973
12.5506
12.1075
11.6682
11.2333
10.8031
10.3780
9.9585
9.5448
9.1374
8.7367
8.3432
7.9572
7.5791
7.2093
6.8482
6.4960
6.1531
5.8199
5.4964
5.1831
4.8802
4.5877
4.3058
4.0347
3.7745
3.5251
3.2866
3.0590
2.8422
2.6361
2.4405
2.2553
2.0804
1.9155
1.7604
1.6147
1.4783
1.3508
1.2318
1.1212
1.0184
0.9232
0.8353
0.7541
0.6795
0.6110
0.5482
0.4909
0.4386
0.3911
0.3480
0.3089
0.2737
0.2420
0.2134
0.1878
0.1650
0.1446
0.1264
0.1103
0.0960
0.0834
0.0722
0.0625
0.0539
0.0464
0.0398
0.0341
0.0292
0.0249
0.0212
0.0180
0.0152
0.0129
0.0108
0.0091
0.0076
0.0064
0.0053
0.0045
0.0037
0.0031
0.0025
0.0021
0.0017
0.0014
0.0012
0.0009
0.0008
0.0006
0.0005
0.0004
0.0003
0.0003
0.0002
0.0002
0.0001
0.0001
0.0001
0.0001
0.0001
0.0000
0.0000
0.0000
0.0000
0.0000
0.0000
0.0000
0.0000
0.0000
0.0000
0.0000
0.0000
0.0000
0.0000
0.0000
0.0000
0.0000
0.0000
0.0000
0.0000
0.0000
0.0000
0.0000
0.0000
0.0000
0.0000
0.0000
0.0000
0.0000
0.0000
0.0000
0.0000
0.0000
0.0000
0.0000
0.0000
0.0000
0.0000
0.0000
0.0000
0.0000
0.0000
0.0000
0.0000
0.0000
0.0000
0.0000
0.0000
0.0000
0.0000
0.0000
0.0000
0.0000
0.0000
0.0000
0.0000
0.0000
0.0000
0.0000
0.0000
0.0000
0.0000
0.0000
0.0000
0.0000
0.0000
0.0000
0.0000
0.0000
0.0000
0.0000
0.0000
0.0000
0.0000
0.0000
0.0000
0.0000
0.0000
0.0000
0.0000
0.0000
0.0000
0.0000
0.0000
0.0000
0.0000
0.0000
0.0000
0.0000
0.0000
0.0000
0.0000
0.0000
0.0000
0.0000
0.0000
0.0000
0.0000
0.0000
0.0000
0.0000
0.0000
0.0000
0.0000
0.0000
0.0000
0.0000
0.0000
0.0000
48.9400
48.9400
49.3414
50.2908
51.8089
53.6347
55.2248
56.2325
56.5923
56.4072
55.8344
55.0206
54.0793
53.0887
52.0984
51.1369
50.2190
49.3504
48.5314
47.7594
47.0304
46.3395
45.6822
45.0538
44.4503
43.8681
43.3039
42.7551
42.2192
41.6943
41.1786
40.6708
40.1696
39.6739
39.1830
38.6961
38.2125
37.7318
37.2535
36.7772
36.3027
35.8296
35.3578
34.8871
34.4172
33.9481
33.4796
33.0116
32.5441
32.0769
31.6100
31.1434
30.6769
30.2106
29.7443
29.2781
28.8119
28.3457
27.8794
27.4131
26.9467
26.4801
26.0134
25.5465
25.0795
24.6122
24.1448
23.6772
23.2094
22.7414
22.2733
21.8050
21.3366
20.8682
20.3997
19.9313
19.4630
18.9949
18.5271
18.0597
17.5929
17.1267
16.6615
16.1973
15.7344
15.2730
14.8133
14.3556
13.9002
13.4474
12.9974
12.5507
12.1075
11.6683
11.2334
10.8032
10.3781
9.9585
9.5448
9.1374
8.7368
8.3432
7.9572
7.5792
7.2094
6.8482
6.4960
6.1531
5.8199
5.4965
5.1831
4.8802
4.5877
4.3058
4.0348
3.7745
3.5251
3.2866
3.0590
2.8422
2.6361
2.4405
2.2553
2.0804
1.9155
1.7604
1.6147
1.4783
1.3508
1.2318
1.1212
1.0184
0.9232
0.8353
0.7541
0.6795
0.6110
0.5482
0.4909
0.4386
0.3911
0.3480
0.3089
0.2737
0.2420
0.2134
0.1878
0.1650
0.1446
0.1264
0.1103
0.0960
0.0834
0.0722
0.0625
0.0539
0.0464
0.0398
0.0341
0.0292
0.0249
0.0212
0.0180
0.0152
0.0129
0.0108
0.0091
0.0076
0.0064
0.0053
0.0045
0.0037
0.0031
0.0025
0.0021
0.0017
0.0014
0.0012
0.0009
0.0008
0.0006
0.0005
0.0004
0.0003
0.0003
0.0002
0.0002
0.0001
0.0001
0.0001
0.0001
0.0001
0.0000
0.0000
0.0000
0.0000
0.0000
0.0000
0.0000
0.0000
0.0000
0.0000
0.0000
0.0000
0.0000
0.0000
0.0000
0.0000
0.0000
0.0000
0.0000
0.0000
0.0000
0.0000
0.0000
0.0000
0.0000
0.0000
0.0000
0.0000
0.0000
0.0000
0.0000
0.0000
0.0000
0.0000
0.0000
0.0000
0.0000
0.0000
0.0000
0.0000
0.0000
0.0000
0.0000
0.0000
0.0000
0.0000
0.0000
0.0000
0.0000
0.0000
0.0000
0.0000
0.0000
0.0000
0.0000
0.0000
0.0000
0.0000
0.0000
0.0000
0.0000
0.0000
0.0000
0.0000
0.0000
0.0000
0.0000
0.0000
0.0000
0.0000
0.0000
0.0000
0.0000
0.0000
0.0000
0.0000
0.0000
0.0000
0.0000
0.0000
0.0000
0.0000
0.0000
0.0000
0.0000
0.0000
0.0000
0.0000
0.0000
0.0000
0.0000
0.0000
0.0000
0.0000
0.0000
0.0000
0.0000
0.0000
0.0000
0.0000
0.0000
0.0000
0.0000
0.0000
0.0000
0.0000
0.0000
0.0000
0.0000
53.6933
53.6933
54.6127
56.8351
60.4657
64.7449
67.8213
69.0748
68.7734
67.4431
65.5535
63.4348
61.2904
59.2331
57.3175
55.5635
53.9714
52.5316
51.2296
50.0495
48.9757
47.9936
47.0899
46.2530
45.4730
44.7411
44.0499
43.3932
42.7655
42.1625
41.5803
41.0157
40.4660
39.9289
39.4025
38.8852
38.3756
37.8725
37.3750
36.8823
36.3936
35.9083
35.4259
34.9461
34.4684
33.9925
33.5182
33.0451
32.5732
32.1023
31.6321
31.1626
30.6936
30.2252
29.7570
29.2892
28.8216
28.3541
27.8868
27.4195
26.9523
26.4850
26.0177
25.5503
25.0828
24.6151
24.1474
23.6794
23.2114
22.7432
22.2748
21.8063
21.3378
20.8692
20.4006
19.9321
19.4636
18.9955
18.5276
18.0601
17.5933
17.1271
16.6618
16.1976
15.7347
15.2732
14.8135
14.3558
13.9003
13.4475
12.9975
12.5508
12.1076
11.6684
11.2335
10.8032
10.3781
9.9585
9.5448
9.1375
8.7368
8.3433
7.9573
7.5792
7.2094
6.8482
6.4960
6.1532
5.8199
5.4965
5.1832
4.8802
4.5877
4.3058
4.0348
3.7745
3.5251
3.2866
3.0590
2.8422
2.6361
2.4405
2.2553
2.0804
1.9155
1.7604
1.6147
1.4783
1.3508
1.2318
1.1212
1.0184
0.9232
0.8353
0.7541
0.6795
0.6110
0.5482
0.4909
0.4386
0.3911
0.3480
0.3089
0.2737
0.2420
0.2134
0.1878
0.1650
0.1446
0.1264
0.1103
0.0960
0.0834
0.0722
0.0625
0.0539
0.0464
0.0398
0.0341
0.0292
0.0249
0.0212
0.0180
0.0152
0.0129
0.0108
0.0091
0.0076
0.0064
0.0053
0.0045
0.0037
0.0031
0.0025
0.0021
0.0017
0.0014
0.0012
0.0009
0.0008
0.0006
0.0005
0.0004
0.0003
0.0003
0.0002
0.0002
0.0001
0.0001
0.0001
0.0001
0.0001
0.0000
0.0000
0.0000
0.0000
0.0000
0.0000
0.0000
0.0000
0.0000
0.0000
0.0000
0.0000
0.0000
0.0000
0.0000
0.0000
0.0000
0.0000
0.0000
0.0000
0.0000
0.0000
0.0000
0.0000
0.0000
0.0000
0.0000
0.0000
0.0000
0.0000
0.0000
0.0000
0.0000
0.0000
0.0000
0.0000
0.0000
0.0000
0.0000
0.0000
0.0000
0.0000
0.0000
0.0000
0.0000
0.0000
0.0000
0.0000
0.0000
0.0000
0.0000
0.0000
0.0000
0.0000
0.0000
0.0000
0.0000
0.0000
0.0000
0.0000
0.0000
0.0000
0.0000
0.0000
0.0000
0.0000
0.0000
0.0000
0.0000
0.0000
0.0000
0.0000
0.0000
0.0000
0.0000
0.0000
0.0000
0.0000
0.0000
0.0000
0.0000
0.0000
0.0000
0.0000
0.0000
0.0000
0.0000
0.0000
0.0000
0.0000
0.0000
0.0000
0.0000
0.0000
0.0000
0.0000
0.0000
0.0000
0.0000
0.0000
0.0000
0.0000
0.0000
0.0000
0.0000
0.0000
0.0000
0.0000
0.0000
61.2166
61.2166
63.2865
68.4985
77.4906
88.2680
93.6513
93.7675
90.7118
86.2293
81.3661
76.6542
72.3253
68.4541
65.0393
62.0460
59.4273
57.1344
55.1213
53.3465
51.7739
50.3724
49.1153
47.9799
46.9473
46.0013
45.1284
44.3171
43.5580
42.8428
42.1649
41.5185
40.8988
40.3019
39.7241
39.1627
38.6153
38.0797
37.5542
37.0374
36.5279
36.0247
35.5269
35.0337
34.5445
34.0586
33.5756
33.0951
32.6167
32.1401
31.6651
31.1913
30.7187
30.2470
29.7761
29.3058
28.8361
28.3668
27.8979
27.4292
26.9608
26.4924
26.0242
25.5560
25.0878
24.6195
24.1512
23.6828
23.2143
22.7457
22.2771
21.8083
21.3395
20.8707
20.4019
19.9332
19.4647
18.9964
18.5284
18.0608
17.5939
17.1277
16.6623
16.1980
15.7350
15.2735
14.8138
14.3560
13.9006
13.4477
12.9977
12.5509
12.1077
11.6685
11.2336
10.8033
10.3782
9.9586
9.5449
9.1375
8.7368
8.3433
7.9573
7.5792
7.2094
6.8482
6.4961
6.1532
5.8199
5.4965
5.1832
4.8802
4.5877
4.3059
4.0348
3.7745
3.5251
3.2867
3.0590
2.8422
2.6361
2.4405
2.2554
2.0804
1.9155
1.7604
1.6147
1.4783
1.3508
1.2318
1.1212
1.0184
0.9232
0.8353
0.7541
0.6795
0.6110
0.5482
0.4909
0.4386
0.3911
0.3480
0.3089
0.2737
0.2420
0.2134
0.1878
0.1650
0.1446
0.1264
0.1103
0.0960
0.0834
0.0722
0.0625
0.0539
0.0464
0.0398
0.0341
0.0292
0.0249
0.0212
0.0180
0.0152
0.0129
0.0108
0.0091
0.0076
0.0064
0.0053
0.0045
0.0037
0.0031
0.0025
0.0021
0.0017
0.0014
0.0012
0.0009
0.0008
0.0006
0.0005
0.0004
0.0003
0.0003
0.0002
0.0002
0.0001
0.0001
0.0001
0.0001
0.0001
0.0000
0.0000
0.0000
0.0000
0.0000
0.0000
0.0000
0.0000
0.0000
0.0000
0.0000
0.0000
0.0000
0.0000
0.0000
0.0000
0.0000
0.0000
0.0000
0.0000
0.0000
0.0000
0.0000
0.0000
0.0000
0.0000
0.0000
0.0000
0.0000
0.0000
0.0000
0.0000
0.0000
0.0000
0.0000
0.0000
0.0000
0.0000
0.0000
0.0000
0.0000
0.0000
0.0000
0.0000
0.0000
0.0000
0.0000
0.0000
0.0000
0.0000
0.0000
0.0000
0.0000
0.0000
0.0000
0.0000
0.0000
0.0000
0.0000
0.0000
0.0000
0.0000
0.0000
0.0000
0.0000
0.0000
0.0000
0.0000
0.0000
0.0000
0.0000
0.0000
0.0000
0.0000
0.0000
0.0000
0.0000
0.0000
0.0000
0.0000
0.0000
0.0000
0.0000
0.0000
0.0000
0.0000
0.0000
0.0000
0.0000
0.0000
0.0000
0.0000
0.0000
0.0000
0.0000
0.0000
0.0000
0.0000
0.0000
0.0000
0.0000
0.0000
0.0000
0.0000
0.0000
0.0000
0.0000
0.0000
0.0000
72.3178
72.3178
76.7435
88.6423
111.4553
141.7672
147.1477
139.5028
127.7573
115.8385
105.0981
95.8346
87.9726
81.3298
75.7132
70.9494
66.8919
63.4190
60.4310
57.8457
55.5959
53.6260
51.8902
50.3506
48.9755
47.7389
46.6188
45.5969
44.6581
43.7894
42.9801
42.2212
41.5051
40.8253
40.1764
39.5538
38.9537
38.3727
37.8081
37.2575
36.7189
36.1905
35.6709
35.1588
34.6533
34.1532
33.6580
33.1668
32.6792
32.1946
31.7126
31.2328
30.7549
30.2786
29.8037
29.3300
28.8572
28.3853
27.9140
27.4434
26.9731
26.5033
26.0337
25.5643
25.0950
24.6259
24.1568
23.6877
23.2186
22.7495
22.2804
21.8112
21.3421
20.8730
20.4039
19.9350
19.4662
18.9977
18.5296
18.0619
17.5948
17.1285
16.6630
16.1987
15.7356
15.2740
14.8142
14.3564
13.9009
13.4480
12.9979
12.5511
12.1079
11.6687
11.2337
10.8035
10.3783
9.9587
9.5450
9.1376
8.7369
8.3434
7.9574
7.5793
7.2094
6.8483
6.4961
6.1532
5.8199
5.4965
5.1832
4.8802
4.5877
4.3059
4.0348
3.7745
3.5252
3.2867
3.0590
2.8422
2.6361
2.4405
2.2554
2.0804
1.9155
1.7604
1.6147
1.4783
1.3508
1.2318
1.1212
1.0184
0.9232
0.8353
0.7541
0.6795
0.6110
0.5482
0.4909
0.4386
0.3911
0.3480
0.3089
0.2737
0.2420
0.2134
0.1878
0.1650
0.1446
0.1264
0.1103
0.0960
0.0834
0.0722
0.0625
0.0539
0.0464
0.0398
0.0341
0.0292
0.0249
0.0212
0.0180
0.0152
0.0129
0.0108
0.0091
0.0076
0.0064
0.0053
0.0045
0.0037
0.0031
0.0025
0.0021
0.0017
0.0014
0.0012
0.0009
0.0008
0.0006
0.0005
0.0004
0.0003
0.0003
0.0002
0.0002
0.0001
0.0001
0.0001
0.0001
0.0001
0.0000
0.0000
0.0000
0.0000
0.0000
0.0000
0.0000
0.0000
0.0000
0.0000
0.0000
0.0000
0.0000
0.0000
0.0000
0.0000
0.0000
0.0000
0.0000
0.0000
0.0000
0.0000
0.0000
0.0000
0.0000
0.0000
0.0000
0.0000
0.0000
0.0000
0.0000
0.0000
0.0000
0.0000
0.0000
0.0000
0.0000
0.0000
0.0000
0.0000
0.0000
0.0000
0.0000
0.0000
0.0000
0.0000
0.0000
0.0000
0.0000
0.0000
0.0000
0.0000
0.0000
0.0000
0.0000
0.0000
0.0000
0.0000
0.0000
0.0000
0.0000
0.0000
0.0000
0.0000
0.0000
0.0000
0.0000
0.0000
0.0000
0.0000
0.0000
0.0000
0.0000
0.0000
0.0000
0.0000
0.0000
0.0000
0.0000
0.0000
0.0000
0.0000
0.0000
0.0000
0.0000
0.0000
0.0000
0.0000
0.0000
0.0000
0.0000
0.0000
0.0000
0.0000
0.0000
0.0000
0.0000
0.0000
0.0000
0.0000
0.0000
0.0000
0.0000
0.0000
0.0000
0.0000
0.0000
0.0000
0.0000
87.1712
87.1712
95.7005
120.8579
178.3969
279.7896
255.6298
216.6011
183.1939
157.1067
136.8679