# vtk DataFile Version 5.0
Example 3D regular grid VTK file.
ASCII
DATASET UNSTRUCTURED_GRID
POINTS 90601 float
0 0 0
0 10 0
0 20 0
0 30 0
0 40 0
0 50 0
0 60 0
0 70 0
0 80 0
0 90 0
0 100 0
0 110 0
0 120 0
0 130 0
0 140 0
0 150 0
0 160 0
0 170 0
0 180 0
0 190 0
0 200 0
0 210 0
0 220 0
0 230 0
0 240 0
0 250 0
0 260 0
0 270 0
0 280 0
0 290 0
0 300 0
0 310 0
0 320 0
0 330 0
0 340 0
0 350 0
0 360 0
0 370 0
0 380 0
0 390 0
0 400 0
0 410 0
0 420 0
0 430 0
0 440 0
0 450 0
0 460 0
0 470 0
0 480 0
0 490 0
0 500 0
0 510 0
0 520 0
0 530 0
0 540 0
0 550 0
0 560 0
0 570 0
0 580 0
0 590 0
0 600 0
0 610 0
0 620 0
0 630 0
0 640 0
0 650 0
0 660 0
0 670 0
0 680 0
0 690 0
0 700 0
0 710 0
0 720 0
0 730 0
0 740 0
0 750 0
0 760 0
0 770 0
0 780 0
0 790 0
0 800 0
0 810 0
0 820 0
0 830 0
0 840 0
0 850 0
0 860 0
0 870 0
0 880 0
0 890 0
0 900 0
0 910 0
0 920 0
0 930 0
0 940 0
0 950 0
0 960 0
0 970 0
0 980 0
0 990 0
0 1000 0
0 1010 0
0 1020 0
0 1030 0
0 1040 0
0 1050 0
0 1060 0
0 1070 0
0 1080 0
0 1090 0
0 1100 0
0 1110 0
0 1120 0
0 1130 0
0 1140 0
0 1150 0
0 1160 0
0 1170 0
0 1180 0
0 1190 0
0 1200 0
0 1210 0
0 1220 0
0 1230 0
0 1240 0
0 1250 0
0 1260 0
0 1270 0
0 1280 0
0 1290 0
0 1300 0
0 1310 0
0 1320 0
0 1330 0
0 1340 0
0 1350 0
0 1360 0
0 1370 0
0 1380 0
0 1390 0
0 1400 0
0 1410 0
0 1420 0
0 1430 0
0 1440 0
0 1450 0
0 1460 0
0 1470 0
0 1480 0
0 1490 0
0 1500 0
0 1510 0
0 1520 0
0 1530 0
0 1540 0
0 1550 0
0 1560 0
0 1570 0
0 1580 0
0 1590 0
0 1600 0
0 1610 0
0 1620 0
0 1630 0
0 1640 0
0 1650 0
0 1660 0
0 1670 0
0 1680 0
0 1690 0
0 1700 0
0 1710 0
0 1720 0
0 1730 0
0 1740 0
0 1750 0
0 1760 0
0 1770 0
0 1780 0
0 1790 0
0 1800 0
0 1810 0
0 1820 0
0 1830 0
0 1840 0
0 1850 0
0 1860 0
0 1870 0
0 1880 0
0 1890 0
0 1900 0
0 1910 0
0 1920 0
0 1930 0
0 1940 0
0 1950 0
0 1960 0
0 1970 0
0 1980 0
0 1990 0
0 2000 0
0 2010 0
0 2020 0
0 2030 0
0 2040 0
0 2050 0
0 2060 0
0 2070 0
0 2080 0
0 2090 0
0 2100 0
0 2110 0
0 2120 0
0 2130 0
0 2140 0
0 2150 0
0 2160 0
0 2170 0
0 2180 0
0 2190 0
0 2200 0
0 2210 0
0 2220 0
0 2230 0
0 2240 0
0 2250 0
0 2260 0
0 2270 0
0 2280 0
0 2290 0
0 2300 0
0 2310 0
0 2320 0
0 2330 0
0 2340 0
0 2350 0
0 2360 0
0 2370 0
0 2380 0
0 2390 0
0 2400 0
0 2410 0
0 2420 0
0 2430 0
0 2440 0
0 2450 0
0 2460 0
0 2470 0
0 2480 0
0 2490 0
0 2500 0
0 2510 0
0 2520 0
0 2530 0
0 2540 0
0 2550 0
0 2560 0
0 2570 0
0 2580 0
0 2590 0
0 2600 0
0 2610 0
0 2620 0
0 2630 0
0 2640 0
0 2650 0
0 2660 0
0 2670 0
0 2680 0
0 2690 0
0 2700 0
0 2710 0
0 2720 0
0 2730 0
0 2740 0
0 2750 0
0 2760 0
0 2770 0
0 2780 0
0 2790 0
0 2800 0
0 2810 0
0 2820 0
0 2830 0
0 2840 0
0 2850 0
0 2860 0
0 2870 0
0 2880 0
0 2890 0
0 2900 0
0 2910 0
0 2920 0
0 2930 0
0 2940 0
0 2950 0
0 2960 0
0 2970 0
0 2980 0
0 2990 0
0 3000 0
10 0 0
10 10 0
10 20 0
10 30 0
10 40 0
10 50 0
10 60 0
10 70 0
10 80 0
10 90 0
10 100 0
10 110 0
10 120 0
10 130 0
10 140 0
10 150 0
10 160 0
10 170 0
10 180 0
10 190 0
10 200 0
10 210 0
10 220 0
10 230 0
10 240 0
10 250 0
10 260 0
10 270 0
10 280 0
10 290 0
10 300 0
10 310 0
10 320 0
10 330 0
10 340 0
10 350 0
10 360 0
10 370 0
10 380 0
10 390 0
10 400 0
10 410 0
10 420 0
10 430 0
10 440 0
10 450 0
10 460 0
10 470 0
10 480 0
10 490 0
10 500 0
10 510 0
10 520 0
10 530 0
10 540 0
10 550 0
10 560 0
10 570 0
10 580 0
10 590 0
10 600 0
10 610 0
10 620 0
10 630 0
10 640 0
10 650 0
10 660 0
10 670 0
10 680 0
10 690 0
10 700 0
10 710 0
10 720 0
10 730 0
10 740 0
10 750 0
10 760 0
10 770 0
10 780 0
10 790 0
10 800 0
10 810 0
10 820 0
10 830 0
10 840 0
10 850 0
10 860 0
10 870 0
10 880 0
10 890 0
10 900 0
10 910 0
10 920 0
10 930 0
10 940 0
10 950 0
10 960 0
10 970 0
10 980 0
10 990 0
10 1000 0
10 1010 0
10 1020 0
10 1030 0
10 1040 0
10 1050 0
10 1060 0
10 1070 0
10 1080 0
10 1090 0
10 1100 0
10 1110 0
10 1120 0
10 1130 0
10 1140 0
10 1150 0
10 1160 0
10 1170 0
10 1180 0
10 1190 0
10 1200 0
10 1210 0
10 1220 0
10 1230 0
10 1240 0
10 1250 0
10 1260 0
10 1270 0
10 1280 0
10 1290 0
10 1300 0
10 1310 0
10 1320 0
10 1330 0
10 1340 0
10 1350 0
10 1360 0
10 1370 0
10 1380 0
10 1390 0
10 1400 0
10 1410 0
10 1420 0
10 1430 0
10 1440 0
10 1450 0
10 1460 0
10 1470 0
10 1480 0
10 1490 0
10 1500 0
10 1510 0
10 1520 0
10 1530 0
10 1540 0
10 1550 0
10 1560 0
10 1570 0
10 1580 0
10 1590 0
10 1600 0
10 1610 0
10 1620 0
10 1630 0
10 1640 0
10 1650 0
10 1660 0
10 1670 0
10 1680 0
10 1690 0
10 1700 0
10 1710 0
10 1720 0
10 1730 0
10 1740 0
10 1750 0
10 1760 0
10 1770 0
10 1780 0
10 1790 0
10 1800 0
10 1810 0
10 1820 0
10 1830 0
10 1840 0
10 1850 0
10 1860 0
10 1870 0
10 1880 0
10 1890 0
10 1900 0
10 1910 0
10 1920 0
10 1930 0
10 1940 0
10 1950 0
10 1960 0
10 1970 0
10 1980 0
10 1990 0
10 2000 0
10 2010 0
10 2020 0
10 2030 0
10 2040 0
10 2050 0
10 2060 0
10 2070 0
10 2080 0
10 2090 0
10 2100 0
10 2110 0
10 2120 0
10 2130 0
10 2140 0
10 2150 0
10 2160 0
10 2170 0
10 2180 0
10 2190 0
10 2200 0
10 2210 0
10 2220 0
10 2230 0
10 2240 0
10 2250 0
10 2260 0
10 2270 0
10 2280 0
10 2290 0
10 2300 0
10 2310 0
10 2320 0
10 2330 0
10 2340 0
10 2350 0
10 2360 0
10 2370 0
10 2380 0
10 2390 0
10 2400 0
10 2410 0
10 2420 0
10 2430 0
10 2440 0
10 2450 0
10 2460 0
10 2470 0
10 2480 0
10 2490 0
10 2500 0
10 2510 0
10 2520 0
10 2530 0
10 2540 0
10 2550 0
10 2560 0
10 2570 0
10 2580 0
10 2590 0
10 2600 0
10 2610 0
10 2620 0
10 2630 0
10 2640 0
10 2650 0
10 2660 0
10 2670 0
10 2680 0
10 2690 0
10 2700 0
10 2710 0
10 2720 0
10 2730 0
10 2740 0
10 2750 0
10 2760 0
10 2770 0
10 2780 0
10 2790 0
10 2800 0
10 2810 0
10 2820 0
10 2830 0
10 2840 0
10 2850 0
10 2860 0
10 2870 0
10 2880 0
10 2890 0
10 2900 0
10 2910 0
10 2920 0
10 2930 0
10 2940 0
10 2950 0
10 2960 0
10 2970 0
10 2980 0
10 2990 0
10 3000 0
20 0 0
20 10 0
20 20 0
20 30 0
20 40 0
20 50 0
20 60 0
20 70 0
20 80 0
20 90 0
20 100 0
20 110 0
20 120 0
20 130 0
20 140 0
20 150 0
20 160 0
20 170 0
20 180 0
20 190 0
20 200 0
20 210 0
20 220 0
20 230 0
20 240 0
20 250 0
20 260 0
20 270 0
20 280 0
20 290 0
20 300 0
20 310 0
20 320 0
20 330 0
20 340 0
20 350 0
20 360 0
20 370 0
20 380 0
20 390 0
20 400 0
20 410 0
20 420 0
20 430 0
20 440 0
20 450 0
20 460 0
20 470 0
20 480 0
20 490 0
20 500 0
20 510 0
20 520 0
20 530 0
20 540 0
20 550 0
20 560 0
20 570 0
20 580 0
20 590 0
20 600 0
20 610 0
20 620 0
20 630 0
20 640 0
20 650 0
20 660 0
20 670 0
20 680 0
20 690 0
20 700 0
20 710 0
20 720 0
20 730 0
20 740 0
20 750 0
20 760 0
20 770 0
20 780 0
20 790 0
20 800 0
20 810 0
20 820 0
20 830 0
20 840 0
20 850 0
20 860 0
20 870 0
20 880 0
20 890 0
20 900 0
20 910 0
20 920 0
20 930 0
20 940 0
20 950 0
20 960 0
20 970 0
20 980 0
20 990 0
20 1000 0
20 1010 0
20 1020 0
20 1030 0
20 1040 0
20 1050 0
20 1060 0
20 1070 0
20 1080 0
20 1090 0
20 1100 0
20 1110 0
20 1120 0
20 1130 0
20 1140 0
20 1150 0
20 1160 0
20 1170 0
20 1180 0
20 1190 0
20 1200 0
20 1210 0
20 1220 0
20 1230 0
20 1240 0
20 1250 0
20 1260 0
20 1270 0
20 1280 0
20 1290 0
20 1300 0
20 1310 0
20 1320 0
20 1330 0
20 1340 0
20 1350 0
20 1360 0
20 1370 0
20 1380 0
20 1390 0
20 1400 0
20 1410 0
20 1420 0
20 1430 0
20 1440 0
20 1450 0
20 1460 0
20 1470 0
20 1480 0
20 1490 0
20 1500 0
20 1510 0
20 1520 0
20 1530 0
20 1540 0
20 1550 0
20 1560 0
20 1570 0
20 1580 0
20 1590 0
20 1600 0
20 1610 0
20 1620 0
20 1630 0
20 1640 0
20 1650 0
20 1660 0
20 1670 0
20 1680 0
20 1690 0
20 1700 0
20 1710 0
20 1720 0
20 1730 0
20 1740 0
20 1750 0
20 1760 0
20 1770 0
20 1780 0
20 1790 0
20 1800 0
20 1810 0
20 1820 0
20 1830 0
20 1840 0
20 1850 0
20 1860 0
20 1870 0
20 1880 0
20 1890 0
20 1900 0
20 1910 0
20 1920 0
20 1930 0
20 1940 0
20 1950 0
20 1960 0
20 1970 0
20 1980 0
20 1990 0
20 2000 0
20 2010 0
20 2020 0
20 2030 0
20 2040 0
20 2050 0
20 2060 0
20 2070 0
20 2080 0
20 2090 0
20 2100 0
20 2110 0
20 2120 0
20 2130 0
20 2140 0
20 2150 0
20 2160 0
20 2170 0
20 2180 0
20 2190 0
20 2200 0
20 2210 0
20 2220 0
20 2230 0
20 2240 0
20 2250 0
20 2260 0
20 2270 0
20 2280 0
20 2290 0
20 2300 0
20 2310 0
20 2320 0
20 2330 0
20 2340 0
20 2350 0
20 2360 0
20 2370 0
20 2380 0
20 2390 0
20 2400 0
20 2410 0
20 2420 0
20 2430 0
20 2440 0
20 2450 0
20 2460 0
20 2470 0
20 2480 0
20 2490 0
20 2500 0
20 2510 0
20 2520 0
20 2530 0
20 2540 0
20 2550 0
20 2560 0
20 2570 0
20 2580 0
20 2590 0
20 2600 0
20 2610 0
20 2620 0
20 2630 0
20 2640 0
20 2650 0
20 2660 0
20 2670 0
20 2680 0
20 2690 0
20 2700 0
20 2710 0
20 2720 0
20 2730 0
20 2740 0
20 2750 0
20 2760 0
20 2770 0
20 2780 0
20 2790 0
20 2800 0
20 2810 0
20 2820 0
20 2830 0
20 2840 0
20 2850 0
20 2860 0
20 2870 0
20 2880 0
20 2890 0
20 2900 0
20 2910 0
20 2920 0
20 2930 0
20 2940 0
20 2950 0
20 2960 0
20 2970 0
20 2980 0
20 2990 0
20 3000 0
30 0 0
30 10 0
30 20 0
30 30 0
30 40 0
30 50 0
30 60 0
30 70 0
30 80 0
30 90 0
30 100 0
30 110 0
30 120 0
30 130 0
30 140 0
30 150 0
30 160 0
30 170 0
30 180 0
30 190 0
30 200 0
30 210 0
30 220 0
30 230 0
30 240 0
30 250 0
30 260 0
30 270 0
30 280 0
30 290 0
30 300 0
30 310 0
30 320 0
30 330 0
30 340 0
30 350 0
30 360 0
30 370 0
30 380 0
30 390 0
30 400 0
30 410 0
30 420 0
30 430 0
30 440 0
30 450 0
30 460 0
30 470 0
30 480 0
30 490 0
30 500 0
30 510 0
30 520 0
30 530 0
30 540 0
30 550 0
30 560 0
30 570 0
30 580 0
30 590 0
30 600 0
30 610 0
30 620 0
30 630 0
30 640 0
30 650 0
30 660 0
30 670 0
30 680 0
30 690 0
30 700 0
30 710 0
30 720 0
30 730 0
30 740 0
30 750 0
30 760 0
30 770 0
30 780 0
30 790 0
30 800 0
30 810 0
30 820 0
30 830 0
30 840 0
30 850 0
30 860 0
30 870 0
30 880 0
30 890 0
30 900 0
30 910 0
30 920 0
30 930 0
30 940 0
30 950 0
30 960 0
30 970 0
30 980 0
30 990 0
30 1000 0
30 1010 0
30 1020 0
30 1030 0
30 1040 0
30 1050 0
30 1060 0
30 1070 0
30 1080 0
30 1090 0
30 1100 0
30 1110 0
30 1120 0
30 1130 0
30 1140 0
30 1150 0
30 1160 0
30 1170 0
30 1180 0
30 1190 0
30 1200 0
30 1210 0
30 1220 0
30 1230 0
30 1240 0
30 1250 0
30 1260 0
30 1270 0
30 1280 0
30 1290 0
30 1300 0
30 1310 0
30 1320 0
30 1330 0
30 1340 0
30 1350 0
30 1360 0
30 1370 0
30 1380 0
30 1390 0
30 1400 0
30 1410 0
30 1420 0
30 1430 0
30 1440 0
30 1450 0
30 1460 0
30 1470 0
30 1480 0
30 1490 0
30 1500 0
30 1510 0
30 1520 0
30 1530 0
30 1540 0
30 1550 0
30 1560 0
30 1570 0
30 1580 0
30 1590 0
[...]
POINT_DATA 90601
SCALARS P float
LOOKUP_TABLE default
48.1877
48.1877
48.2246
48.3127
48.4607
48.6674
48.9205
49.1991
49.4789
49.7368
49.9546
50.1198
50.2257
50.2700
50.2540
50.1813
50.0566
49.8852
49.6726
49.4240
49.1441
48.8373
48.5075
48.1579
47.7915
47.4107
47.0178
46.6144
46.2023
45.7826
45.3565
44.9250
44.4888
44.0487
43.6051
43.1587
42.7098
42.2588
41.8060
41.3516
40.8959
40.4391
39.9812
39.5225
39.0630
38.6029
38.1423
37.6812
37.2196
36.7577
36.2954
35.8329
35.3701
34.9071
34.4438
33.9804
33.5168
33.0530
32.5890
32.1249
31.6607
31.1962
30.7317
30.2670
29.8021
29.3370
28.8718
28.4065
27.9409
27.4752
27.0093
26.5433
26.0770
25.6106
25.1440
24.6772
24.2103
23.7432
23.2760
22.8088
22.3414
21.8741
21.4068
20.9396
20.4726
20.0058
19.5394
19.0734
18.6079
18.1431
17.6792
17.2163
16.7545
16.2941
15.8352
15.3781
14.9231
14.4703
14.0201
13.5727
13.1284
12.6875
12.2505
11.8175
11.3889
10.9651
10.5465
10.1334
9.7261
9.3251
8.9306
8.5431
8.1628
7.7902
7.4256
7.0692
6.7214
6.3824
6.0525
5.7319
5.4209
5.1197
4.8283
4.5470
4.2758
4.0148
3.7640
3.5236
3.2934
3.0734
2.8635
2.6637
2.4738
2.2936
2.1230
1.9618
1.8098
1.6666
1.5322
1.4061
1.2881
1.1779
1.0752
0.9797
0.8910
0.8089
0.7329
0.6629
0.5984
0.5392
0.4849
0.4353
0.3900
0.3487
0.3112
0.2771
0.2464
0.2186
0.1935
0.1710
0.1508
0.1327
0.1166
0.1022
0.0894
0.0780
0.0680
0.0591
0.0513
0.0444
0.0383
0.0331
0.0284
0.0244
0.0209
0.0179
0.0153
0.0130
0.0110
0.0094
0.0079
0.0067
0.0056
0.0047
0.0040
0.0033
0.0028
0.0023
0.0019
0.0016
0.0013
0.0011
0.0009
0.0007
0.0006
0.0005
0.0004
0.0003
0.0003
0.0002
0.0002
0.0001
0.0001
0.0001
0.0001
0.0001
0.0000
0.0000
0.0000
0.0000
0.0000
0.0000
0.0000
0.0000
0.0000
0.0000
0.0000
0.0000
0.0000
0.0000
0.0000
0.0000
0.0000
0.0000
0.0000
0.0000
0.0000
0.0000
0.0000
0.0000
0.0000
0.0000
0.0000
0.0000
0.0000
0.0000
0.0000
0.0000
0.0000
0.0000
0.0000
0.0000
0.0000
0.0000
0.0000
0.0000
0.0000
0.0000
0.0000
0.0000
0.0000
0.0000
0.0000
0.0000
0.0000
0.0000
0.0000
0.0000
0.0000
0.0000
0.0000
0.0000
0.0000
0.0000
0.0000
0.0000
0.0000
0.0000
0.0000
0.0000
0.0000
0.0000
0.0000
0.0000
0.0000
0.0000
0.0000
0.0000
0.0000
0.0000
0.0000
0.0000
0.0000
0.0000
0.0000
0.0000
0.0000
0.0000
0.0000
0.0000
0.0000
0.0000
0.0000
0.0000
0.0000
0.0000
0.0000
0.0000
0.0000
0.0000
0.0000
48.1877
48.1877
48.2246
48.3127
48.4607
48.6674
48.9205
49.1991
49.4789
49.7368
49.9546
50.1198
50.2257
50.2700
50.2540
50.1813
50.0566
49.8852
49.6726
49.4240
49.1441
48.8373
48.5075
48.1579
47.7915
47.4107
47.0178
46.6144
46.2023
45.7826
45.3565
44.9250
44.4888
44.0487
43.6051
43.1587
42.7098
42.2588
41.8060
41.3516
40.8959
40.4391
39.9812
39.5225
39.0630
38.6029
38.1423
37.6812
37.2196
36.7577
36.2954
35.8329
35.3701
34.9071
34.4438
33.9804
33.5168
33.0530
32.5890
32.1249
31.6607
31.1962
30.7317
30.2670
29.8021
29.3370
28.8718
28.4065
27.9409
27.4752
27.0093
26.5433
26.0770
25.6106
25.1440
24.6772
24.2103
23.7432
23.2760
22.8088
22.3414
21.8741
21.4068
20.9396
20.4726
20.0058
19.5394
19.0734
18.6079
18.1431
17.6792
17.2163
16.7545
16.2941
15.8352
15.3781
14.9231
14.4703
14.0201
13.5727
13.1284
12.6875
12.2505
11.8175
11.3889
10.9651
10.5465
10.1334
9.7261
9.3251
8.9306
8.5431
8.1628
7.7902
7.4256
7.0692
6.7214
6.3824
6.0525
5.7319
5.4209
5.1197
4.8283
4.5470
4.2758
4.0148
3.7640
3.5236
3.2934
3.0734
2.8635
2.6637
2.4738
2.2936
2.1230
1.9618
1.8098
1.6666
1.5322
1.4061
1.2881
1.1779
1.0752
0.9797
0.8910
0.8089
0.7329
0.6629
0.5984
0.5392
0.4849
0.4353
0.3900
0.3487
0.3112
0.2771
0.2464
0.2186
0.1935
0.1710
0.1508
0.1327
0.1166
0.1022
0.0894
0.0780
0.0680
0.0591
0.0513
0.0444
0.0383
0.0331
0.0284
0.0244
0.0209
0.0179
0.0153
0.0130
0.0110
0.0094
0.0079
0.0067
0.0056
0.0047
0.0040
0.0033
0.0028
0.0023
0.0019
0.0016
0.0013
0.0011
0.0009
0.0007
0.0006
0.0005
0.0004
0.0003
0.0003
0.0002
0.0002
0.0001
0.0001
0.0001
0.0001
0.0001
0.0000
0.0000
0.0000
0.0000
0.0000
0.0000
0.0000
0.0000
0.0000
0.0000
0.0000
0.0000
0.0000
0.0000
0.0000
0.0000
0.0000
0.0000
0.0000
0.0000
0.0000
0.0000
0.0000
0.0000
0.0000
0.0000
0.0000
0.0000
0.0000
0.0000
0.0000
0.0000
0.0000
0.0000
0.0000
0.0000
0.0000
0.0000
0.0000
0.0000
0.0000
0.0000
0.0000
0.0000
0.0000
0.0000
0.0000
0.0000
0.0000
0.0000
0.0000
0.0000
0.0000
0.0000
0.0000
0.0000
0.0000
0.0000
0.0000
0.0000
0.0000
0.0000
0.0000
0.0000
0.0000
0.0000
0.0000
0.0000
0.0000
0.0000
0.0000
0.0000
0.0000
0.0000
0.0000
0.0000
0.0000
0.0000
0.0000
0.0000
0.0000
0.0000
0.0000
0.0000
0.0000
0.0000
0.0000
0.0000
0.0000
0.0000
0.0000
0.0000
0.0000
0.0000
0.0000
48.4789
48.4789
48.5277
48.6433
48.8347
49.0953
49.4022
49.7232
50.0267
50.2875
50.4894
50.6242
50.6902
50.6897
50.6276
50.5100
50.3432
50.1334
49.8865
49.6075
49.3013
48.9716
48.6221
48.2557
47.8749
47.4818
47.0784
46.6662
46.2465
45.8204
45.3888
44.9526
44.5125
44.0690
43.6226
43.1737
42.7227
42.2699
41.8155
41.3599
40.9030
40.4452
39.9865
39.5270
39.0670
38.6064
38.1453
37.6837
37.2218
36.7596
36.2971
35.8343
35.3714
34.9082
34.4448
33.9812
33.5175
33.0536
32.5896
32.1254
31.6611
31.1966
30.7320
30.2672
29.8023
29.3373
28.8720
28.4066
27.9411
27.4753
27.0094
26.5433
26.0771
25.6106
25.1440
24.6772
24.2103
23.7432
23.2761
22.8088
22.3415
21.8741
21.4068
20.9396
20.4726
20.0058
19.5394
19.0734
18.6079
18.1432
17.6792
17.2163
16.7545
16.2941
15.8352
15.3781
14.9231
14.4703
14.0201
13.5727
13.1284
12.6875
12.2505
11.8175
11.3889
10.9651
10.5465
10.1334
9.7261
9.3251
8.9306
8.5431
8.1628
7.7902
7.4256
7.0692
6.7214
6.3824
6.0525
5.7319
5.4209
5.1197
4.8283
4.5470
4.2758
4.0148
3.7640
3.5236
3.2934
3.0734
2.8635
2.6637
2.4738
2.2936
2.1230
1.9618
1.8098
1.6666
1.5322
1.4061
1.2881
1.1779
1.0752
0.9797
0.8910
0.8089
0.7329
0.6629
0.5984
0.5392
0.4849
0.4353
0.3900
0.3487
0.3112
0.2771
0.2464
0.2186
0.1935
0.1710
0.1508
0.1327
0.1166
0.1022
0.0894
0.0780
0.0680
0.0591
0.0513
0.0444
0.0383
0.0331
0.0284
0.0244
0.0209
0.0179
0.0153
0.0130
0.0110
0.0094
0.0079
0.0067
0.0056
0.0047
0.0040
0.0033
0.0028
0.0023
0.0019
0.0016
0.0013
0.0011
0.0009
0.0007
0.0006
0.0005
0.0004
0.0003
0.0003
0.0002
0.0002
0.0001
0.0001
0.0001
0.0001
0.0001
0.0000
0.0000
0.0000
0.0000
0.0000
0.0000
0.0000
0.0000
0.0000
0.0000
0.0000
0.0000
0.0000
0.0000
0.0000
0.0000
0.0000
0.0000
0.0000
0.0000
0.0000
0.0000
0.0000
0.0000
0.0000
0.0000
0.0000
0.0000
0.0000
0.0000
0.0000
0.0000
0.0000
0.0000
0.0000
0.0000
0.0000
0.0000
0.0000
0.0000
0.0000
0.0000
0.0000
0.0000
0.0000
0.0000
0.0000
0.0000
0.0000
0.0000
0.0000
0.0000
0.0000
0.0000
0.0000
0.0000
0.0000
0.0000
0.0000
0.0000
0.0000
0.0000
0.0000
0.0000
0.0000
0.0000
0.0000
0.0000
0.0000
0.0000
0.0000
0.0000
0.0000
0.0000
0.0000
0.0000
0.0000
0.0000
0.0000
0.0000
0.0000
0.0000
0.0000
0.0000
0.0000
0.0000
0.0000
0.0000
0.0000
0.0000
0.0000
0.0000
0.0000
0.0000
0.0000
49.2555
49.2555
49.3409
49.5418
49.8674
50.2920
50.7554
51.1906
51.5473
51.7991
51.9402
51.9775
51.9244
51.7957
51.6053
51.3653
51.0857
50.7742
50.4371
50.0793
49.7045
49.3159
48.9158
48.5061
48.0884
47.6639
47.2338
46.7988
46.3598
45.9172
45.4717
45.0236
44.5733
44.1211
43.6673
43.2121
42.7558
42.2984
41.8401
41.3810
40.9212
40.4609
40.0001
39.5388
39.0772
38.6152
38.1529
37.6903
37.2276
36.7646
36.3014
35.8381
35.3746
34.9110
34.4473
33.9834
33.5194
33.0553
32.5910
32.1267
31.6622
31.1976
30.7328
30.2680
29.8030
29.3378
28.8725
28.4071
27.9415
27.4757
27.0097
26.5436
26.0773
25.6108
25.1442
24.6774
24.2104
23.7434
23.2762
22.8089
22.3415
21.8742
21.4069
20.9397
20.4727
20.0059
19.5394
19.0734
18.6079
18.1432
17.6792
17.2163
16.7545
16.2941
15.8352
15.3782
14.9231
14.4703
14.0201
13.5727
13.1284
12.6876
12.2505
11.8175
11.3889
10.9651
10.5465
10.1334
9.7261
9.3251
8.9306
8.5431
8.1629
7.7902
7.4256
7.0692
6.7214
6.3824
6.0525
5.7319
5.4209
5.1197
4.8283
4.5470
4.2758
4.0148
3.7640
3.5236
3.2934
3.0734
2.8635
2.6637
2.4738
2.2936
2.1230
1.9618
1.8098
1.6666
1.5322
1.4061
1.2881
1.1779
1.0752
0.9797
0.8910
0.8089
0.7329
0.6629
0.5984
0.5392
0.4849
0.4353
0.3900
0.3487
0.3112
0.2771
0.2464
0.2186
0.1935
0.1710
0.1508
0.1327
0.1166
0.1022
0.0894
0.0780
0.0680
0.0591
0.0513
0.0444
0.0383
0.0331
0.0284
0.0244
0.0209
0.0179
0.0153
0.0130
0.0110
0.0094
0.0079
0.0067
0.0056
0.0047
0.0040
0.0033
0.0028
0.0023
0.0019
0.0016
0.0013
0.0011
0.0009
0.0007
0.0006
0.0005
0.0004
0.0003
0.0003
0.0002
0.0002
0.0001
0.0001
0.0001
0.0001
0.0001
0.0000
0.0000
0.0000
0.0000
0.0000
0.0000
0.0000
0.0000
0.0000
0.0000
0.0000
0.0000
0.0000
0.0000
0.0000
0.0000
0.0000
0.0000
0.0000
0.0000
0.0000
0.0000
0.0000
0.0000
0.0000
0.0000
0.0000
0.0000
0.0000
0.0000
0.0000
0.0000
0.0000
0.0000
0.0000
0.0000
0.0000
0.0000
0.0000
0.0000
0.0000
0.0000
0.0000
0.0000
0.0000
0.0000
0.0000
0.0000
0.0000
0.0000
0.0000
0.0000
0.0000
0.0000
0.0000
0.0000
0.0000
0.0000
0.0000
0.0000
0.0000
0.0000
0.0000
0.0000
0.0000
0.0000
0.0000
0.0000
0.0000
0.0000
0.0000
0.0000
0.0000
0.0000
0.0000
0.0000
0.0000
0.0000
0.0000
0.0000
0.0000
0.0000
0.0000
0.0000
0.0000
0.0000
0.0000
0.0000
0.0000
0.0000
0.0000
0.0000
0.0000
0.0000
0.0000
50.8240
50.8240
51.0024
51.4209
52.0900
52.9245
53.7494
54.4101
54.8284
54.9966
54.9485
54.7329
54.3976
53.9825
53.5174
53.0237
52.5154
52.0015
51.4876
50.9766
50.4700
49.9684
49.4718
48.9800
48.4923
48.0085
47.5278
47.0499
46.5743
46.1007
45.6287
45.1581
44.6887
44.2202
43.7524
43.2853
42.8187
42.3526
41.8868
41.4213
40.9560
40.4910
40.0261
39.5613
39.0966
38.6320
38.1675
37.7030
37.2386
36.7742
36.3097
35.8453
35.3809
34.9165
34.4520
33.9875
33.5230
33.0584
32.5938
32.1291
31.6643
31.1994
30.7344
30.2694
29.8042
29.3389
28.8735
28.4079
27.9422
27.4763
27.0103
26.5441
26.0777
25.6112
25.1445
24.6777
24.2107
23.7436
23.2764
22.8091
22.3417
21.8743
21.4070
20.9398
20.4727
20.0059
19.5395
19.0735
18.6080
18.1432
17.6793
17.2163
16.7545
16.2941
15.8353
15.3782
14.9231
14.4703
14.0201
13.5727
13.1284
12.6876
12.2505
11.8175
11.3889
10.9652
10.5465
10.1334
9.7261
9.3251
8.9306
8.5431
8.1629
7.7902
7.4256
7.0692
6.7214
6.3824
6.0525
5.7319
5.4209
5.1197
4.8283
4.5470
4.2758
4.0148
3.7640
3.5236
3.2934
3.0734
2.8635
2.6637
2.4738
2.2936
2.1230
1.9618
1.8098
1.6666
1.5322
1.4061
1.2881
1.1779
1.0752
0.9797
0.8910
0.8089
0.7329
0.6629
0.5984
0.5392
0.4849
0.4353
0.3900
0.3487
0.3112
0.2771
0.2464
0.2186
0.1935
0.1710
0.1508
0.1327
0.1166
0.1022
0.0894
0.0780
0.0680
0.0591
0.0513
0.0444
0.0383
0.0331
0.0284
0.0244
0.0209
0.0179
0.0153
0.0130
0.0110
0.0094
0.0079
0.0067
0.0056
0.0047
0.0040
0.0033
0.0028
0.0023
0.0019
0.0016
0.0013
0.0011
0.0009
0.0007
0.0006
0.0005
0.0004
0.0003
0.0003
0.0002
0.0002
0.0001
0.0001
0.0001
0.0001
0.0001
0.0000
0.0000
0.0000
0.0000
0.0000
0.0000
0.0000
0.0000
0.0000
0.0000
0.0000
0.0000
0.0000
0.0000
0.0000
0.0000
0.0000
0.0000
0.0000
0.0000
0.0000
0.0000
0.0000
0.0000
0.0000
0.0000
0.0000
0.0000
0.0000
0.0000
0.0000
0.0000
0.0000
0.0000
0.0000
0.0000
0.0000
0.0000
0.0000
0.0000
0.0000
0.0000
0.0000
0.0000
0.0000
0.0000
0.0000
0.0000
0.0000
0.0000
0.0000
0.0000
0.0000
0.0000
0.0000
0.0000
0.0000
0.0000
0.0000
0.0000
0.0000
0.0000
0.0000
0.0000
0.0000
0.0000
0.0000
0.0000
0.0000
0.0000
0.0000
0.0000
0.0000
0.0000
0.0000
0.0000
0.0000
0.0000
0.0000
0.0000
0.0000
0.0000
0.0000
0.0000
0.0000
0.0000
0.0000
0.0000
0.0000
0.0000
0.0000
0.0000
0.0000
0.0000
0.0000
53.6513
53.6513
54.0527
55.0021
56.5202
58.3460
59.9362
60.9438
61.3036
61.1185
60.5457
59.7319
58.7906
57.8000
56.8097
55.8482
54.9303
54.0617
53.2427
52.4707
51.7417
51.0509
50.3935
49.7651
49.1616
48.5794
48.0152
47.4664
46.9305
46.4056
45.8900
45.3822
44.8810
44.3853
43.8944
43.4075
42.9240
42.4433
41.9651
41.4889
41.0144
40.5414
40.0697
39.5991
39.1294
38.6604
38.1921
37.7244
37.2572
36.7903
36.3238
35.8575
35.3915
34.9257
34.4601
33.9946
33.5291
33.0638
32.5984
32.1331
31.6678
31.2025
30.7372
30.2717
29.8063
29.3407
28.8751
28.4093
27.9434
27.4774
27.0112
26.5449
26.0784
25.6118
25.1451
24.6782
24.2111
23.7440
23.2767
22.8093
22.3420
21.8746
21.4072
20.9400
20.4729
20.0061
19.5396
19.0736
18.6081
18.1433
17.6794
17.2164
16.7546
16.2942
15.8353
15.3782
14.9232
14.4704
14.0201
13.5727
13.1284
12.6876
12.2505
11.8175
11.3889
10.9652
10.5465
10.1334
9.7261
9.3251
8.9306
8.5431
8.1629
7.7902
7.4256
7.0692
6.7214
6.3824
6.0525
5.7319
5.4209
5.1197
4.8283
4.5470
4.2758
4.0148
3.7640
3.5236
3.2934
3.0734
2.8635
2.6637
2.4738
2.2936
2.1230
1.9618
1.8098
1.6666
1.5322
1.4061
1.2881
1.1779
1.0752
0.9797
0.8910
0.8089
0.7329
0.6629
0.5984
0.5392
0.4849
0.4353
0.3900
0.3487
0.3112
0.2771
0.2464
0.2186
0.1935
0.1710
0.1508
0.1327
0.1166
0.1022
0.0894
0.0780
0.0680
0.0591
0.0513
0.0444
0.0383
0.0331
0.0284
0.0244
0.0209
0.0179
0.0153
0.0130
0.0110
0.0094
0.0079
0.0067
0.0056
0.0047
0.0040
0.0033
0.0028
0.0023
0.0019
0.0016
0.0013
0.0011
0.0009
0.0007
0.0006
0.0005
0.0004
0.0003
0.0003
0.0002
0.0002
0.0001
0.0001
0.0001
0.0001
0.0001
0.0000
0.0000
0.0000
0.0000
0.0000
0.0000
0.0000
0.0000
0.0000
0.0000
0.0000
0.0000
0.0000
0.0000
0.0000
0.0000
0.0000
0.0000
0.0000
0.0000
0.0000
0.0000
0.0000
0.0000
0.0000
0.0000
0.0000
0.0000
0.0000
0.0000
0.0000
0.0000
0.0000
0.0000
0.0000
0.0000
0.0000
0.0000
0.0000
0.0000
0.0000
0.0000
0.0000
0.0000
0.0000
0.0000
0.0000
0.0000
0.0000
0.0000
0.0000
0.0000
0.0000
0.0000
0.0000
0.0000
0.0000
0.0000
0.0000
0.0000
0.0000
0.0000
0.0000
0.0000
0.0000
0.0000
0.0000
0.0000
0.0000
0.0000
0.0000
0.0000
0.0000
0.0000
0.0000
0.0000
0.0000
0.0000
0.0000
0.0000
0.0000
0.0000
0.0000
0.0000
0.0000
0.0000
0.0000
0.0000
0.0000
0.0000
0.0000
0.0000
0.0000
0.0000
0.0000
58.4047
58.4047
59.3240
61.5464
65.1770
69.4562
72.5326
73.7861
73.4847
72.1544
70.2648
68.1461
66.0017
63.9444
62.0288
60.2748
58.6827
57.2429
55.9409
54.7608
53.6871
52.7049
51.8012
50.9644
50.1843
49.4524
48.7612
48.1045
47.4769
46.8739
46.2917
45.7271
45.1774
44.6403
44.1139
43.5966
43.0871
42.5841
42.0866
41.5939
41.1053
40.6201
40.1379
39.6581
39.1806
38.7049
38.2307
37.7579
37.2863
36.8156
36.3458
35.8767
35.4083
34.9403
34.4728
34.0056
33.5388
33.0722
32.6058
32.1396
31.6735
31.2074
30.7415
30.2755
29.8096
29.3436
28.8776
28.4115
27.9453
27.4791
27.0127
26.5462
26.0796
25.6128
25.1460
24.6789
24.2118
23.7446
23.2772
22.8098
22.3424
21.8749
21.4075
20.9403
20.4731
20.0063
19.5398
19.0737
18.6082
18.1434
17.6795
17.2165
16.7547
16.2942
15.8354
15.3783
14.9232
14.4704
14.0202
13.5728
13.1285
12.6876
12.2505
11.8175
11.3890
10.9652
10.5465
10.1334
9.7261
9.3251
8.9306
8.5431
8.1629
7.7903
7.4256
7.0692
6.7214
6.3824
6.0525
5.7320
5.4210
5.1197
4.8283
4.5470
4.2758
4.0148
3.7640
3.5236
3.2934
3.0734
2.8635
2.6637
2.4738
2.2936
2.1230
1.9618
1.8098
1.6666
1.5322
1.4061
1.2881
1.1779
1.0752
0.9797
0.8910
0.8089
0.7329
0.6629
0.5984
0.5392
0.4849
0.4353
0.3900
0.3487
0.3112
0.2771
0.2464
0.2186
0.1935
0.1710
0.1508
0.1327
0.1166
0.1022
0.0894
0.0780
0.0680
0.0591
0.0513
0.0444
0.0383
0.0331
0.0284
0.0244
0.0209
0.0179
0.0153
0.0130
0.0110
0.0094
0.0079
0.0067
0.0056
0.0047
0.0040
0.0033
0.0028
0.0023
0.0019
0.0016
0.0013
0.0011
0.0009
0.0007
0.0006
0.0005
0.0004
0.0003
0.0003
0.0002
0.0002
0.0001
0.0001
0.0001
0.0001
0.0001
0.0000
0.0000
0.0000
0.0000
0.0000
0.0000
0.0000
0.0000
0.0000
0.0000
0.0000
0.0000
0.0000
0.0000
0.0000
0.0000
0.0000
0.0000
0.0000
0.0000
0.0000
0.0000
0.0000
0.0000
0.0000
0.0000
0.0000
0.0000
0.0000
0.0000
0.0000
0.0000
0.0000
0.0000
0.0000
0.0000
0.0000
0.0000
0.0000
0.0000
0.0000
0.0000
0.0000
0.0000
0.0000
0.0000
0.0000
0.0000
0.0000
0.0000
0.0000
0.0000
0.0000
0.0000
0.0000
0.0000
0.0000
0.0000
0.0000
0.0000
0.0000
0.0000
0.0000
0.0000
0.0000
0.0000
0.0000
0.0000
0.0000
0.0000
0.0000
0.0000
0.0000
0.0000
0.0000
0.0000
0.0000
0.0000
0.0000
0.0000
0.0000
0.0000
0.0000
0.0000
0.0000
0.0000
0.0000
0.0000
0.0000
0.0000
0.0000
0.0000
0.0000
0.0000
0.0000
65.9279
65.9279
67.9978
73.2098
82.2019
92.9793
98.3626
98.4788
95.4231
90.9406
86.0774
81.3655
77.0366
73.1654
69.7506
66.7573
64.1387
61.8457
59.8326
58.0578
56.4852
55.0837
53.8266
52.6913
51.6586
50.7127
49.8397
49.0285
48.2693
47.5542
46.8763
46.2299
45.6102
45.0133
44.4355
43.8742
43.3268
42.7912
42.2658
41.7490
41.2396
40.7365
40.2388
39.7458
39.2567
38.7710
38.2882
37.8079
37.3298
36.8535
36.3788
35.9055
35.4333
34.9622
34.4919
34.0223
33.5533
33.0849
32.6169
32.1493
31.6820
31.2149
30.7480
30.2812
29.8146
29.3480
28.8814
28.4149
27.9483
27.4817
27.0150
26.5482
26.0813
25.6144
25.1473
24.6801
24.2128
23.7455
23.2780
22.8105
22.3430
21.8755
21.4080
20.9407
20.4735
20.0066
19.5401
19.0740
18.6085
18.1436
17.6796
17.2166
16.7548
16.2944
15.8355
15.3784
14.9233
14.4705
14.0202
13.5728
13.1285
12.6877
12.2506
11.8176
11.3890
10.9652
10.5466
10.1334
9.7262
9.3251
8.9306
8.5431
8.1629
7.7903
7.4256
7.0692
6.7214
6.3824
6.0525
5.7320
5.4210
5.1197
4.8283
4.5470
4.2758
4.0148
3.7641
3.5236
3.2934
3.0734
2.8635
2.6637
2.4738
2.2936
2.1230
1.9618
1.8098
1.6666
1.5322
1.4061
1.2881
1.1779
1.0752
0.9797
0.8910
0.8089
0.7329
0.6629
0.5984
0.5392
0.4849
0.4353
0.3900
0.3487
0.3112
0.2771
0.2464
0.2186
0.1935
0.1710
0.1508
0.1327
0.1166
0.1022
0.0894
0.0780
0.0680
0.0591
0.0513
0.0444
0.0383
0.0331
0.0284
0.0244
0.0209
0.0179
0.0153
0.0130
0.0110
0.0094
0.0079
0.0067
0.0056
0.0047
0.0040
0.0033
0.0028
0.0023
0.0019
0.0016
0.0013
0.0011
0.0009
0.0007
0.0006
0.0005
0.0004
0.0003
0.0003
0.0002
0.0002
0.0001
0.0001
0.0001
0.0001
0.0001
0.0000
0.0000
0.0000
0.0000
0.0000
0.0000
0.0000
0.0000
0.0000
0.0000
0.0000
0.0000
0.0000
0.0000
0.0000
0.0000
0.0000
0.0000
0.0000
0.0000
0.0000
0.0000
0.0000
0.0000
0.0000
0.0000
0.0000
0.0000
0.0000
0.0000
0.0000
0.0000
0.0000
0.0000
0.0000
0.0000
0.0000
0.0000
0.0000
0.0000
0.0000
0.0000
0.0000
0.0000
0.0000
0.0000
0.0000
0.0000
0.0000
0.0000
0.0000
0.0000
0.0000
0.0000
0.0000
0.0000
0.0000
0.0000
0.0000
0.0000
0.0000
0.0000
0.0000
0.0000
0.0000
0.0000
0.0000
0.0000
0.0000
0.0000
0.0000
0.0000
0.0000
0.0000
0.0000
0.0000
0.0000
0.0000
0.0000
0.0000
0.0000
0.0000
0.0000
0.0000
0.0000
0.0000
0.0000
0.0000
0.0000
0.0000
0.0000
0.0000
0.0000
0.0000
0.0000
77.0291
77.0291
81.4548
93.3536
116.1666
146.4785
151.8590
144.2141
132.4686
120.5499
109.8094
100.5459
92.6839
86.0411
80.4245
75.6607
71.6032
68.1304
65.1423
62.5570
60.3072
58.3373
56.6016
55.0619
53.6869
52.4502
51.3301
50.3083
49.3694
48.5007
47.6915
46.9326
46.2165
45.5367
44.8878
44.2653
43.6652
43.0843
42.5197
41.9692
41.4306
40.9023
40.3828
39.8709
39.3655
38.8656
38.3706
37.8796
37.3923
36.9080
36.4263
35.9469
35.4695
34.9937
34.5194
34.0464
33.5744
33.1033
32.6330
32.1634
31.6943
31.2257
30.7574
30.2895
29.8218
29.3544
28.8870
28.4198
27.9526
27.4854
27.0183
26.5511
26.0839
25.6166
25.1493
24.6819
24.2144
23.7468
23.2792
22.8116
22.3439
21.8763
21.4087
20.9413
20.4741
20.0071
19.5405
19.0744
18.6088
18.1439
17.6799
17.2169
16.7550
16.2945
15.8356
15.3785
14.9234
14.4706
14.0203
13.5729
13.1286
12.6877
12.2506
11.8176
11.3890
10.9652
10.5466
10.1335
9.7262
9.3251
8.9307
8.5431
8.1629
7.7903
7.4256
7.0692
6.7214
6.3824
6.0525
5.7320
5.4210
5.1197
4.8283
4.5470
4.2758
4.0148
3.7641
3.5236
3.2934
3.0734
2.8635
2.6637
2.4738
2.2936
2.1230
1.9618
1.8098
1.6666
1.5322
1.4061
1.2881
1.1779
1.0752
0.9797
0.8910
0.8089
0.7329
0.6629
0.5984
0.5392
0.4849
0.4353
0.3900
0.3487
0.3112
0.2771
0.2464
0.2186
0.1935
0.1710
0.1508
0.1327
0.1166
0.1022
0.0894
0.0780
0.0680
0.0591
0.0513
0.0444
0.0383
0.0331
0.0284
0.0244
0.0209
0.0179
0.0153
0.0130
0.0110
0.0094
0.0079
0.0067
0.0056
0.0047
0.0040
0.0033
0.0028
0.0023
0.0019
0.0016
0.0013
0.0011
0.0009
0.0007
0.0006
0.0005
0.0004
0.0003
0.0003
0.0002
0.0002
0.0001
0.0001
0.0001
0.0001
0.0001
0.0000
0.0000
0.0000
0.0000
0.0000
0.0000
0.0000
0.0000
0.0000
0.0000
0.0000
0.0000
0.0000
0.0000
0.0000
0.0000
0.0000
0.0000
0.0000
0.0000
0.0000
0.0000
0.0000
0.0000
0.0000
0.0000
0.0000
0.0000
0.0000
0.0000
0.0000
0.0000
0.0000
0.0000
0.0000
0.0000
0.0000
0.0000
0.0000
0.0000
0.0000
0.0000
0.0000
0.0000
0.0000
0.0000
0.0000
0.0000
0.0000
0.0000
0.0000
0.0000
0.0000
0.0000
0.0000
0.0000
0.0000
0.0000
0.0000
0.0000
0.0000
0.0000
0.0000
0.0000
0.0000
0.0000
0.0000
0.0000
0.0000
0.0000
0.0000
0.0000
0.0000
0.0000
0.0000
0.0000
0.0000
0.0000
0.0000
0.0000
0.0000
0.0000
0.0000
0.0000
0.0000
0.0000
0.0000
0.0000
0.0000
0.0000
0.0000
0.0000
0.0000
0.0000
0.0000