# vtk DataFile Version 5.0
Example 3D regular grid VTK file.
ASCII
DATASET UNSTRUCTURED_GRID
POINTS 90601 float
0 0 0
0 10 0
0 20 0
0 30 0
0 40 0
0 50 0
0 60 0
0 70 0
0 80 0
0 90 0
0 100 0
0 110 0
0 120 0
0 130 0
0 140 0
0 150 0
0 160 0
0 170 0
0 180 0
0 190 0
0 200 0
0 210 0
0 220 0
0 230 0
0 240 0
0 250 0
0 260 0
0 270 0
0 280 0
0 290 0
0 300 0
0 310 0
0 320 0
0 330 0
0 340 0
0 350 0
0 360 0
0 370 0
0 380 0
0 390 0
0 400 0
0 410 0
0 420 0
0 430 0
0 440 0
0 450 0
0 460 0
0 470 0
0 480 0
0 490 0
0 500 0
0 510 0
0 520 0
0 530 0
0 540 0
0 550 0
0 560 0
0 570 0
0 580 0
0 590 0
0 600 0
0 610 0
0 620 0
0 630 0
0 640 0
0 650 0
0 660 0
0 670 0
0 680 0
0 690 0
0 700 0
0 710 0
0 720 0
0 730 0
0 740 0
0 750 0
0 760 0
0 770 0
0 780 0
0 790 0
0 800 0
0 810 0
0 820 0
0 830 0
0 840 0
0 850 0
0 860 0
0 870 0
0 880 0
0 890 0
0 900 0
0 910 0
0 920 0
0 930 0
0 940 0
0 950 0
0 960 0
0 970 0
0 980 0
0 990 0
0 1000 0
0 1010 0
0 1020 0
0 1030 0
0 1040 0
0 1050 0
0 1060 0
0 1070 0
0 1080 0
0 1090 0
0 1100 0
0 1110 0
0 1120 0
0 1130 0
0 1140 0
0 1150 0
0 1160 0
0 1170 0
0 1180 0
0 1190 0
0 1200 0
0 1210 0
0 1220 0
0 1230 0
0 1240 0
0 1250 0
0 1260 0
0 1270 0
0 1280 0
0 1290 0
0 1300 0
0 1310 0
0 1320 0
0 1330 0
0 1340 0
0 1350 0
0 1360 0
0 1370 0
0 1380 0
0 1390 0
0 1400 0
0 1410 0
0 1420 0
0 1430 0
0 1440 0
0 1450 0
0 1460 0
0 1470 0
0 1480 0
0 1490 0
0 1500 0
0 1510 0
0 1520 0
0 1530 0
0 1540 0
0 1550 0
0 1560 0
0 1570 0
0 1580 0
0 1590 0
0 1600 0
0 1610 0
0 1620 0
0 1630 0
0 1640 0
0 1650 0
0 1660 0
0 1670 0
0 1680 0
0 1690 0
0 1700 0
0 1710 0
0 1720 0
0 1730 0
0 1740 0
0 1750 0
0 1760 0
0 1770 0
0 1780 0
0 1790 0
0 1800 0
0 1810 0
0 1820 0
0 1830 0
0 1840 0
0 1850 0
0 1860 0
0 1870 0
0 1880 0
0 1890 0
0 1900 0
0 1910 0
0 1920 0
0 1930 0
0 1940 0
0 1950 0
0 1960 0
0 1970 0
0 1980 0
0 1990 0
0 2000 0
0 2010 0
0 2020 0
0 2030 0
0 2040 0
0 2050 0
0 2060 0
0 2070 0
0 2080 0
0 2090 0
0 2100 0
0 2110 0
0 2120 0
0 2130 0
0 2140 0
0 2150 0
0 2160 0
0 2170 0
0 2180 0
0 2190 0
0 2200 0
0 2210 0
0 2220 0
0 2230 0
0 2240 0
0 2250 0
0 2260 0
0 2270 0
0 2280 0
0 2290 0
0 2300 0
0 2310 0
0 2320 0
0 2330 0
0 2340 0
0 2350 0
0 2360 0
0 2370 0
0 2380 0
0 2390 0
0 2400 0
0 2410 0
0 2420 0
0 2430 0
0 2440 0
0 2450 0
0 2460 0
0 2470 0
0 2480 0
0 2490 0
0 2500 0
0 2510 0
0 2520 0
0 2530 0
0 2540 0
0 2550 0
0 2560 0
0 2570 0
0 2580 0
0 2590 0
0 2600 0
0 2610 0
0 2620 0
0 2630 0
0 2640 0
0 2650 0
0 2660 0
0 2670 0
0 2680 0
0 2690 0
0 2700 0
0 2710 0
0 2720 0
0 2730 0
0 2740 0
0 2750 0
0 2760 0
0 2770 0
0 2780 0
0 2790 0
0 2800 0
0 2810 0
0 2820 0
0 2830 0
0 2840 0
0 2850 0
0 2860 0
0 2870 0
0 2880 0
0 2890 0
0 2900 0
0 2910 0
0 2920 0
0 2930 0
0 2940 0
0 2950 0
0 2960 0
0 2970 0
0 2980 0
0 2990 0
0 3000 0
10 0 0
10 10 0
10 20 0
10 30 0
10 40 0
10 50 0
10 60 0
10 70 0
10 80 0
10 90 0
10 100 0
10 110 0
10 120 0
10 130 0
10 140 0
10 150 0
10 160 0
10 170 0
10 180 0
10 190 0
10 200 0
10 210 0
10 220 0
10 230 0
10 240 0
10 250 0
10 260 0
10 270 0
10 280 0
10 290 0
10 300 0
10 310 0
10 320 0
10 330 0
10 340 0
10 350 0
10 360 0
10 370 0
10 380 0
10 390 0
10 400 0
10 410 0
10 420 0
10 430 0
10 440 0
10 450 0
10 460 0
10 470 0
10 480 0
10 490 0
10 500 0
10 510 0
10 520 0
10 530 0
10 540 0
10 550 0
10 560 0
10 570 0
10 580 0
10 590 0
10 600 0
10 610 0
10 620 0
10 630 0
10 640 0
10 650 0
10 660 0
10 670 0
10 680 0
10 690 0
10 700 0
10 710 0
10 720 0
10 730 0
10 740 0
10 750 0
10 760 0
10 770 0
10 780 0
10 790 0
10 800 0
10 810 0
10 820 0
10 830 0
10 840 0
10 850 0
10 860 0
10 870 0
10 880 0
10 890 0
10 900 0
10 910 0
10 920 0
10 930 0
10 940 0
10 950 0
10 960 0
10 970 0
10 980 0
10 990 0
10 1000 0
10 1010 0
10 1020 0
10 1030 0
10 1040 0
10 1050 0
10 1060 0
10 1070 0
10 1080 0
10 1090 0
10 1100 0
10 1110 0
10 1120 0
10 1130 0
10 1140 0
10 1150 0
10 1160 0
10 1170 0
10 1180 0
10 1190 0
10 1200 0
10 1210 0
10 1220 0
10 1230 0
10 1240 0
10 1250 0
10 1260 0
10 1270 0
10 1280 0
10 1290 0
10 1300 0
10 1310 0
10 1320 0
10 1330 0
10 1340 0
10 1350 0
10 1360 0
10 1370 0
10 1380 0
10 1390 0
10 1400 0
10 1410 0
10 1420 0
10 1430 0
10 1440 0
10 1450 0
10 1460 0
10 1470 0
10 1480 0
10 1490 0
10 1500 0
10 1510 0
10 1520 0
10 1530 0
10 1540 0
10 1550 0
10 1560 0
10 1570 0
10 1580 0
10 1590 0
10 1600 0
10 1610 0
10 1620 0
10 1630 0
10 1640 0
10 1650 0
10 1660 0
10 1670 0
10 1680 0
10 1690 0
10 1700 0
10 1710 0
10 1720 0
10 1730 0
10 1740 0
10 1750 0
10 1760 0
10 1770 0
10 1780 0
10 1790 0
10 1800 0
10 1810 0
10 1820 0
10 1830 0
10 1840 0
10 1850 0
10 1860 0
10 1870 0
10 1880 0
10 1890 0
10 1900 0
10 1910 0
10 1920 0
10 1930 0
10 1940 0
10 1950 0
10 1960 0
10 1970 0
10 1980 0
10 1990 0
10 2000 0
10 2010 0
10 2020 0
10 2030 0
10 2040 0
10 2050 0
10 2060 0
10 2070 0
10 2080 0
10 2090 0
10 2100 0
10 2110 0
10 2120 0
10 2130 0
10 2140 0
10 2150 0
10 2160 0
10 2170 0
10 2180 0
10 2190 0
10 2200 0
10 2210 0
10 2220 0
10 2230 0
10 2240 0
10 2250 0
10 2260 0
10 2270 0
10 2280 0
10 2290 0
10 2300 0
10 2310 0
10 2320 0
10 2330 0
10 2340 0
10 2350 0
10 2360 0
10 2370 0
10 2380 0
10 2390 0
10 2400 0
10 2410 0
10 2420 0
10 2430 0
10 2440 0
10 2450 0
10 2460 0
10 2470 0
10 2480 0
10 2490 0
10 2500 0
10 2510 0
10 2520 0
10 2530 0
10 2540 0
10 2550 0
10 2560 0
10 2570 0
10 2580 0
10 2590 0
10 2600 0
10 2610 0
10 2620 0
10 2630 0
10 2640 0
10 2650 0
10 2660 0
10 2670 0
10 2680 0
10 2690 0
10 2700 0
10 2710 0
10 2720 0
10 2730 0
10 2740 0
10 2750 0
10 2760 0
10 2770 0
10 2780 0
10 2790 0
10 2800 0
10 2810 0
10 2820 0
10 2830 0
10 2840 0
10 2850 0
10 2860 0
10 2870 0
10 2880 0
10 2890 0
10 2900 0
10 2910 0
10 2920 0
10 2930 0
10 2940 0
10 2950 0
10 2960 0
10 2970 0
10 2980 0
10 2990 0
10 3000 0
20 0 0
20 10 0
20 20 0
20 30 0
20 40 0
20 50 0
20 60 0
20 70 0
20 80 0
20 90 0
20 100 0
20 110 0
20 120 0
20 130 0
20 140 0
20 150 0
20 160 0
20 170 0
20 180 0
20 190 0
20 200 0
20 210 0
20 220 0
20 230 0
20 240 0
20 250 0
20 260 0
20 270 0
20 280 0
20 290 0
20 300 0
20 310 0
20 320 0
20 330 0
20 340 0
20 350 0
20 360 0
20 370 0
20 380 0
20 390 0
20 400 0
20 410 0
20 420 0
20 430 0
20 440 0
20 450 0
20 460 0
20 470 0
20 480 0
20 490 0
20 500 0
20 510 0
20 520 0
20 530 0
20 540 0
20 550 0
20 560 0
20 570 0
20 580 0
20 590 0
20 600 0
20 610 0
20 620 0
20 630 0
20 640 0
20 650 0
20 660 0
20 670 0
20 680 0
20 690 0
20 700 0
20 710 0
20 720 0
20 730 0
20 740 0
20 750 0
20 760 0
20 770 0
20 780 0
20 790 0
20 800 0
20 810 0
20 820 0
20 830 0
20 840 0
20 850 0
20 860 0
20 870 0
20 880 0
20 890 0
20 900 0
20 910 0
20 920 0
20 930 0
20 940 0
20 950 0
20 960 0
20 970 0
20 980 0
20 990 0
20 1000 0
20 1010 0
20 1020 0
20 1030 0
20 1040 0
20 1050 0
20 1060 0
20 1070 0
20 1080 0
20 1090 0
20 1100 0
20 1110 0
20 1120 0
20 1130 0
20 1140 0
20 1150 0
20 1160 0
20 1170 0
20 1180 0
20 1190 0
20 1200 0
20 1210 0
20 1220 0
20 1230 0
20 1240 0
20 1250 0
20 1260 0
20 1270 0
20 1280 0
20 1290 0
20 1300 0
20 1310 0
20 1320 0
20 1330 0
20 1340 0
20 1350 0
20 1360 0
20 1370 0
20 1380 0
20 1390 0
20 1400 0
20 1410 0
20 1420 0
20 1430 0
20 1440 0
20 1450 0
20 1460 0
20 1470 0
20 1480 0
20 1490 0
20 1500 0
20 1510 0
20 1520 0
20 1530 0
20 1540 0
20 1550 0
20 1560 0
20 1570 0
20 1580 0
20 1590 0
20 1600 0
20 1610 0
20 1620 0
20 1630 0
20 1640 0
20 1650 0
20 1660 0
20 1670 0
20 1680 0
20 1690 0
20 1700 0
20 1710 0
20 1720 0
20 1730 0
20 1740 0
20 1750 0
20 1760 0
20 1770 0
20 1780 0
20 1790 0
20 1800 0
20 1810 0
20 1820 0
20 1830 0
20 1840 0
20 1850 0
20 1860 0
20 1870 0
20 1880 0
20 1890 0
20 1900 0
20 1910 0
20 1920 0
20 1930 0
20 1940 0
20 1950 0
20 1960 0
20 1970 0
20 1980 0
20 1990 0
20 2000 0
20 2010 0
20 2020 0
20 2030 0
20 2040 0
20 2050 0
20 2060 0
20 2070 0
20 2080 0
20 2090 0
20 2100 0
20 2110 0
20 2120 0
20 2130 0
20 2140 0
20 2150 0
20 2160 0
20 2170 0
20 2180 0
20 2190 0
20 2200 0
20 2210 0
20 2220 0
20 2230 0
20 2240 0
20 2250 0
20 2260 0
20 2270 0
20 2280 0
20 2290 0
20 2300 0
20 2310 0
20 2320 0
20 2330 0
20 2340 0
20 2350 0
20 2360 0
20 2370 0
20 2380 0
20 2390 0
20 2400 0
20 2410 0
20 2420 0
20 2430 0
20 2440 0
20 2450 0
20 2460 0
20 2470 0
20 2480 0
20 2490 0
20 2500 0
20 2510 0
20 2520 0
20 2530 0
20 2540 0
20 2550 0
20 2560 0
20 2570 0
20 2580 0
20 2590 0
20 2600 0
20 2610 0
20 2620 0
20 2630 0
20 2640 0
20 2650 0
20 2660 0
20 2670 0
20 2680 0
20 2690 0
20 2700 0
20 2710 0
20 2720 0
20 2730 0
20 2740 0
20 2750 0
20 2760 0
20 2770 0
20 2780 0
20 2790 0
20 2800 0
20 2810 0
20 2820 0
20 2830 0
20 2840 0
20 2850 0
20 2860 0
20 2870 0
20 2880 0
20 2890 0
20 2900 0
20 2910 0
20 2920 0
20 2930 0
20 2940 0
20 2950 0
20 2960 0
20 2970 0
20 2980 0
20 2990 0
20 3000 0
30 0 0
30 10 0
30 20 0
30 30 0
30 40 0
30 50 0
30 60 0
30 70 0
30 80 0
30 90 0
30 100 0
30 110 0
30 120 0
30 130 0
30 140 0
30 150 0
30 160 0
30 170 0
30 180 0
30 190 0
30 200 0
30 210 0
30 220 0
30 230 0
30 240 0
30 250 0
30 260 0
30 270 0
30 280 0
30 290 0
30 300 0
30 310 0
30 320 0
30 330 0
30 340 0
30 350 0
30 360 0
30 370 0
30 380 0
30 390 0
30 400 0
30 410 0
30 420 0
30 430 0
30 440 0
30 450 0
30 460 0
30 470 0
30 480 0
30 490 0
30 500 0
30 510 0
30 520 0
30 530 0
30 540 0
30 550 0
30 560 0
30 570 0
30 580 0
30 590 0
30 600 0
30 610 0
30 620 0
30 630 0
30 640 0
30 650 0
30 660 0
30 670 0
30 680 0
30 690 0
30 700 0
30 710 0
30 720 0
30 730 0
30 740 0
30 750 0
30 760 0
30 770 0
30 780 0
30 790 0
30 800 0
30 810 0
30 820 0
30 830 0
30 840 0
30 850 0
30 860 0
30 870 0
30 880 0
30 890 0
30 900 0
30 910 0
30 920 0
30 930 0
30 940 0
30 950 0
30 960 0
30 970 0
30 980 0
30 990 0
30 1000 0
30 1010 0
30 1020 0
30 1030 0
30 1040 0
30 1050 0
30 1060 0
30 1070 0
30 1080 0
30 1090 0
30 1100 0
30 1110 0
30 1120 0
30 1130 0
30 1140 0
30 1150 0
30 1160 0
30 1170 0
30 1180 0
30 1190 0
30 1200 0
30 1210 0
30 1220 0
30 1230 0
30 1240 0
30 1250 0
30 1260 0
30 1270 0
30 1280 0
30 1290 0
30 1300 0
30 1310 0
30 1320 0
30 1330 0
30 1340 0
30 1350 0
30 1360 0
30 1370 0
30 1380 0
30 1390 0
30 1400 0
30 1410 0
30 1420 0
30 1430 0
30 1440 0
30 1450 0
30 1460 0
30 1470 0
30 1480 0
30 1490 0
30 1500 0
30 1510 0
30 1520 0
30 1530 0
30 1540 0
30 1550 0
30 1560 0
30 1570 0
30 1580 0
30 1590 0
[...]
POINT_DATA 90601
SCALARS P float
LOOKUP_TABLE default
52.8990
52.8990
52.9359
53.0240
53.1720
53.3787
53.6318
53.9105
54.1902
54.4481
54.6659
54.8311
54.9370
54.9813
54.9653
54.8926
54.7679
54.5965
54.3839
54.1353
53.8554
53.5486
53.2188
52.8692
52.5028
52.1220
51.7291
51.3257
50.9136
50.4939
50.0678
49.6363
49.2001
48.7600
48.3165
47.8701
47.4212
46.9702
46.5174
46.0630
45.6073
45.1505
44.6927
44.2340
43.7746
43.3145
42.8539
42.3929
41.9314
41.4696
41.0075
40.5450
40.0824
39.6195
39.1565
38.6933
38.2300
37.7665
37.3029
36.8392
36.3754
35.9114
35.4474
34.9833
34.5191
34.0549
33.5905
33.1260
32.6615
32.1968
31.7320
31.2672
30.8022
30.3371
29.8719
29.4066
28.9411
28.4755
28.0098
27.5440
27.0780
26.6119
26.1457
25.6793
25.2129
24.7464
24.2799
23.8133
23.3467
22.8802
22.4137
21.9474
21.4813
21.0155
20.5500
20.0850
19.6205
19.1567
18.6937
18.2316
17.7706
17.3108
16.8525
16.3957
15.9407
15.4878
15.0372
14.5890
14.1436
13.7012
13.2621
12.8267
12.3951
11.9677
11.5448
11.1267
10.7138
10.3063
9.9047
9.5092
9.1201
8.7378
8.3625
7.9946
7.6344
7.2821
6.9380
6.6023
6.2753
5.9572
5.6482
5.3484
5.0580
4.7771
4.5058
4.2442
3.9923
3.7502
3.5177
3.2950
3.0820
2.8785
2.6844
2.4997
2.3242
2.1578
2.0001
1.8511
1.7105
1.5781
1.4536
1.3367
1.2273
1.1249
1.0294
0.9405
0.8577
0.7810
0.7099
0.6441
0.5834
0.5276
0.4762
0.4291
0.3860
0.3466
0.3106
0.2779
0.2482
0.2213
0.1969
0.1749
0.1551
0.1372
0.1212
0.1069
0.0940
0.0826
0.0724
0.0634
0.0554
0.0483
0.0420
0.0365
0.0316
0.0274
0.0236
0.0204
0.0175
0.0150
0.0129
0.0110
0.0094
0.0080
0.0068
0.0058
0.0049
0.0041
0.0035
0.0029
0.0025
0.0021
0.0017
0.0014
0.0012
0.0010
0.0008
0.0007
0.0006
0.0005
0.0004
0.0003
0.0003
0.0002
0.0002
0.0001
0.0001
0.0001
0.0001
0.0001
0.0000
0.0000
0.0000
0.0000
0.0000
0.0000
0.0000
0.0000
0.0000
0.0000
0.0000
0.0000
0.0000
0.0000
0.0000
0.0000
0.0000
0.0000
0.0000
0.0000
0.0000
0.0000
0.0000
0.0000
0.0000
0.0000
0.0000
0.0000
0.0000
0.0000
0.0000
0.0000
0.0000
0.0000
0.0000
0.0000
0.0000
0.0000
0.0000
0.0000
0.0000
0.0000
0.0000
0.0000
0.0000
0.0000
0.0000
0.0000
0.0000
0.0000
0.0000
0.0000
0.0000
0.0000
0.0000
0.0000
0.0000
0.0000
0.0000
0.0000
0.0000
0.0000
0.0000
0.0000
0.0000
0.0000
0.0000
0.0000
0.0000
0.0000
0.0000
0.0000
0.0000
0.0000
0.0000
0.0000
0.0000
0.0000
0.0000
0.0000
0.0000
52.8990
52.8990
52.9359
53.0240
53.1720
53.3787
53.6318
53.9105
54.1902
54.4481
54.6659
54.8311
54.9370
54.9813
54.9653
54.8926
54.7679
54.5965
54.3839
54.1353
53.8554
53.5486
53.2188
52.8692
52.5028
52.1220
51.7291
51.3257
50.9136
50.4939
50.0678
49.6363
49.2001
48.7600
48.3165
47.8701
47.4212
46.9702
46.5174
46.0630
45.6073
45.1505
44.6927
44.2340
43.7746
43.3145
42.8539
42.3929
41.9314
41.4696
41.0075
40.5450
40.0824
39.6195
39.1565
38.6933
38.2300
37.7665
37.3029
36.8392
36.3754
35.9114
35.4474
34.9833
34.5191
34.0549
33.5905
33.1260
32.6615
32.1968
31.7320
31.2672
30.8022
30.3371
29.8719
29.4066
28.9411
28.4755
28.0098
27.5440
27.0780
26.6119
26.1457
25.6793
25.2129
24.7464
24.2799
23.8133
23.3467
22.8802
22.4137
21.9474
21.4813
21.0155
20.5500
20.0850
19.6205
19.1567
18.6937
18.2316
17.7706
17.3108
16.8525
16.3957
15.9407
15.4878
15.0372
14.5890
14.1436
13.7012
13.2621
12.8267
12.3951
11.9677
11.5448
11.1267
10.7138
10.3063
9.9047
9.5092
9.1201
8.7378
8.3625
7.9946
7.6344
7.2821
6.9380
6.6023
6.2753
5.9572
5.6482
5.3484
5.0580
4.7771
4.5058
4.2442
3.9923
3.7502
3.5177
3.2950
3.0820
2.8785
2.6844
2.4997
2.3242
2.1578
2.0001
1.8511
1.7105
1.5781
1.4536
1.3367
1.2273
1.1249
1.0294
0.9405
0.8577
0.7810
0.7099
0.6441
0.5834
0.5276
0.4762
0.4291
0.3860
0.3466
0.3106
0.2779
0.2482
0.2213
0.1969
0.1749
0.1551
0.1372
0.1212
0.1069
0.0940
0.0826
0.0724
0.0634
0.0554
0.0483
0.0420
0.0365
0.0316
0.0274
0.0236
0.0204
0.0175
0.0150
0.0129
0.0110
0.0094
0.0080
0.0068
0.0058
0.0049
0.0041
0.0035
0.0029
0.0025
0.0021
0.0017
0.0014
0.0012
0.0010
0.0008
0.0007
0.0006
0.0005
0.0004
0.0003
0.0003
0.0002
0.0002
0.0001
0.0001
0.0001
0.0001
0.0001
0.0000
0.0000
0.0000
0.0000
0.0000
0.0000
0.0000
0.0000
0.0000
0.0000
0.0000
0.0000
0.0000
0.0000
0.0000
0.0000
0.0000
0.0000
0.0000
0.0000
0.0000
0.0000
0.0000
0.0000
0.0000
0.0000
0.0000
0.0000
0.0000
0.0000
0.0000
0.0000
0.0000
0.0000
0.0000
0.0000
0.0000
0.0000
0.0000
0.0000
0.0000
0.0000
0.0000
0.0000
0.0000
0.0000
0.0000
0.0000
0.0000
0.0000
0.0000
0.0000
0.0000
0.0000
0.0000
0.0000
0.0000
0.0000
0.0000
0.0000
0.0000
0.0000
0.0000
0.0000
0.0000
0.0000
0.0000
0.0000
0.0000
0.0000
0.0000
0.0000
0.0000
0.0000
0.0000
0.0000
0.0000
0.0000
0.0000
0.0000
0.0000
53.1902
53.1902
53.2390
53.3546
53.5460
53.8066
54.1135
54.4345
54.7380
54.9988
55.2007
55.3355
55.4015
55.4010
55.3389
55.2213
55.0545
54.8447
54.5978
54.3189
54.0126
53.6829
53.3334
52.9670
52.5862
52.1932
51.7898
51.3775
50.9578
50.5317
50.1001
49.6640
49.2238
48.7803
48.3339
47.8850
47.4341
46.9813
46.5269
46.0712
45.6144
45.1566
44.6979
44.2386
43.7785
43.3180
42.8569
42.3955
41.9336
41.4715
41.0091
40.5465
40.0837
39.6207
39.1575
38.6941
38.2307
37.7671
37.3034
36.8397
36.3758
35.9118
35.4478
34.9836
34.5194
34.0551
33.5907
33.1262
32.6616
32.1969
31.7322
31.2673
30.8023
30.3372
29.8720
29.4066
28.9412
28.4756
28.0098
27.5440
27.0780
26.6119
26.1457
25.6794
25.2129
24.7464
24.2799
23.8133
23.3467
22.8802
22.4137
21.9474
21.4813
21.0155
20.5500
20.0850
19.6205
19.1567
18.6937
18.2316
17.7706
17.3108
16.8525
16.3957
15.9408
15.4878
15.0372
14.5890
14.1436
13.7012
13.2621
12.8267
12.3951
11.9677
11.5448
11.1267
10.7138
10.3063
9.9047
9.5092
9.1201
8.7378
8.3625
7.9946
7.6344
7.2821
6.9380
6.6023
6.2753
5.9572
5.6482
5.3484
5.0580
4.7771
4.5058
4.2442
3.9923
3.7502
3.5177
3.2950
3.0820
2.8785
2.6844
2.4997
2.3242
2.1578
2.0001
1.8511
1.7105
1.5781
1.4536
1.3367
1.2273
1.1249
1.0294
0.9405
0.8577
0.7810
0.7099
0.6441
0.5834
0.5276
0.4762
0.4291
0.3860
0.3466
0.3106
0.2779
0.2482
0.2213
0.1969
0.1749
0.1551
0.1372
0.1212
0.1069
0.0940
0.0826
0.0724
0.0634
0.0554
0.0483
0.0420
0.0365
0.0316
0.0274
0.0236
0.0204
0.0175
0.0150
0.0129
0.0110
0.0094
0.0080
0.0068
0.0058
0.0049
0.0041
0.0035
0.0029
0.0025
0.0021
0.0017
0.0014
0.0012
0.0010
0.0008
0.0007
0.0006
0.0005
0.0004
0.0003
0.0003
0.0002
0.0002
0.0001
0.0001
0.0001
0.0001
0.0001
0.0000
0.0000
0.0000
0.0000
0.0000
0.0000
0.0000
0.0000
0.0000
0.0000
0.0000
0.0000
0.0000
0.0000
0.0000
0.0000
0.0000
0.0000
0.0000
0.0000
0.0000
0.0000
0.0000
0.0000
0.0000
0.0000
0.0000
0.0000
0.0000
0.0000
0.0000
0.0000
0.0000
0.0000
0.0000
0.0000
0.0000
0.0000
0.0000
0.0000
0.0000
0.0000
0.0000
0.0000
0.0000
0.0000
0.0000
0.0000
0.0000
0.0000
0.0000
0.0000
0.0000
0.0000
0.0000
0.0000
0.0000
0.0000
0.0000
0.0000
0.0000
0.0000
0.0000
0.0000
0.0000
0.0000
0.0000
0.0000
0.0000
0.0000
0.0000
0.0000
0.0000
0.0000
0.0000
0.0000
0.0000
0.0000
0.0000
0.0000
0.0000
53.9668
53.9668
54.0522
54.2531
54.5787
55.0033
55.4667
55.9019
56.2586
56.5104
56.6515
56.6889
56.6357
56.5070
56.3166
56.0766
55.7970
55.4855
55.1484
54.7906
54.4158
54.0272
53.6271
53.2174
52.7997
52.3752
51.9451
51.5101
51.0711
50.6285
50.1830
49.7349
49.2846
48.8324
48.3787
47.9235
47.4671
47.0097
46.5514
46.0924
45.6327
45.1723
44.7115
44.2503
43.7887
43.3268
42.8645
42.4021
41.9394
41.4765
41.0135
40.5503
40.0869
39.6235
39.1599
38.6963
38.2326
37.7688
37.3049
36.8409
36.3769
35.9128
35.4486
34.9843
34.5200
34.0556
33.5912
33.1266
32.6620
32.1973
31.7324
31.2675
30.8025
30.3374
29.8721
29.4068
28.9413
28.4757
28.0099
27.5441
27.0781
26.6120
26.1457
25.6794
25.2130
24.7465
24.2799
23.8133
23.3467
22.8802
22.4137
21.9474
21.4813
21.0155
20.5500
20.0850
19.6205
19.1567
18.6937
18.2316
17.7706
17.3108
16.8525
16.3957
15.9408
15.4878
15.0372
14.5890
14.1436
13.7012
13.2621
12.8267
12.3951
11.9677
11.5448
11.1267
10.7138
10.3063
9.9047
9.5092
9.1201
8.7378
8.3625
7.9946
7.6344
7.2821
6.9380
6.6023
6.2753
5.9572
5.6482
5.3484
5.0580
4.7771
4.5058
4.2442
3.9923
3.7502
3.5177
3.2950
3.0820
2.8785
2.6844
2.4997
2.3242
2.1578
2.0001
1.8511
1.7105
1.5781
1.4536
1.3367
1.2273
1.1249
1.0294
0.9405
0.8577
0.7810
0.7099
0.6441
0.5834
0.5276
0.4762
0.4291
0.3860
0.3466
0.3106
0.2779
0.2482
0.2213
0.1969
0.1749
0.1551
0.1372
0.1212
0.1069
0.0940
0.0826
0.0724
0.0634
0.0554
0.0483
0.0420
0.0365
0.0316
0.0274
0.0236
0.0204
0.0175
0.0150
0.0129
0.0110
0.0094
0.0080
0.0068
0.0058
0.0049
0.0041
0.0035
0.0029
0.0025
0.0021
0.0017
0.0014
0.0012
0.0010
0.0008
0.0007
0.0006
0.0005
0.0004
0.0003
0.0003
0.0002
0.0002
0.0001
0.0001
0.0001
0.0001
0.0001
0.0000
0.0000
0.0000
0.0000
0.0000
0.0000
0.0000
0.0000
0.0000
0.0000
0.0000
0.0000
0.0000
0.0000
0.0000
0.0000
0.0000
0.0000
0.0000
0.0000
0.0000
0.0000
0.0000
0.0000
0.0000
0.0000
0.0000
0.0000
0.0000
0.0000
0.0000
0.0000
0.0000
0.0000
0.0000
0.0000
0.0000
0.0000
0.0000
0.0000
0.0000
0.0000
0.0000
0.0000
0.0000
0.0000
0.0000
0.0000
0.0000
0.0000
0.0000
0.0000
0.0000
0.0000
0.0000
0.0000
0.0000
0.0000
0.0000
0.0000
0.0000
0.0000
0.0000
0.0000
0.0000
0.0000
0.0000
0.0000
0.0000
0.0000
0.0000
0.0000
0.0000
0.0000
0.0000
0.0000
0.0000
0.0000
0.0000
0.0000
0.0000
55.5353
55.5353
55.7137
56.1322
56.8013
57.6358
58.4607
59.1214
59.5397
59.7079
59.6598
59.4442
59.1089
58.6938
58.2287
57.7350
57.2267
56.7128
56.1989
55.6879
55.1813
54.6797
54.1832
53.6913
53.2037
52.7198
52.2391
51.7612
51.2856
50.8120
50.3401
49.8695
49.4000
48.9315
48.4637
47.9966
47.5301
47.0639
46.5982
46.1327
45.6674
45.2024
44.7375
44.2728
43.8082
43.3436
42.8792
42.4148
41.9504
41.4861
41.0218
40.5575
40.0932
39.6290
39.1647
38.7005
38.2362
37.7719
37.3076
36.8433
36.3790
35.9146
35.4502
34.9857
34.5212
34.0567
33.5921
33.1274
32.6627
32.1979
31.7330
31.2680
30.8029
30.3378
29.8725
29.4071
28.9415
28.4759
28.0101
27.5442
27.0782
26.6121
26.1459
25.6795
25.2131
24.7465
24.2800
23.8134
23.3468
22.8802
22.4138
21.9475
21.4814
21.0155
20.5501
20.0850
19.6206
19.1568
18.6937
18.2316
17.7706
17.3108
16.8525
16.3957
15.9408
15.4878
15.0372
14.5890
14.1436
13.7012
13.2622
12.8267
12.3951
11.9677
11.5448
11.1267
10.7138
10.3064
9.9047
9.5092
9.1201
8.7378
8.3625
7.9946
7.6344
7.2821
6.9380
6.6023
6.2753
5.9572
5.6482
5.3484
5.0580
4.7771
4.5058
4.2442
3.9923
3.7502
3.5177
3.2950
3.0820
2.8785
2.6844
2.4997
2.3242
2.1578
2.0001
1.8511
1.7105
1.5781
1.4536
1.3367
1.2273
1.1249
1.0294
0.9405
0.8577
0.7810
0.7099
0.6441
0.5834
0.5276
0.4762
0.4291
0.3860
0.3466
0.3106
0.2779
0.2482
0.2213
0.1969
0.1749
0.1551
0.1372
0.1212
0.1069
0.0940
0.0826
0.0724
0.0634
0.0554
0.0483
0.0420
0.0365
0.0316
0.0274
0.0236
0.0204
0.0175
0.0150
0.0129
0.0110
0.0094
0.0080
0.0068
0.0058
0.0049
0.0041
0.0035
0.0029
0.0025
0.0021
0.0017
0.0014
0.0012
0.0010
0.0008
0.0007
0.0006
0.0005
0.0004
0.0003
0.0003
0.0002
0.0002
0.0001
0.0001
0.0001
0.0001
0.0001
0.0000
0.0000
0.0000
0.0000
0.0000
0.0000
0.0000
0.0000
0.0000
0.0000
0.0000
0.0000
0.0000
0.0000
0.0000
0.0000
0.0000
0.0000
0.0000
0.0000
0.0000
0.0000
0.0000
0.0000
0.0000
0.0000
0.0000
0.0000
0.0000
0.0000
0.0000
0.0000
0.0000
0.0000
0.0000
0.0000
0.0000
0.0000
0.0000
0.0000
0.0000
0.0000
0.0000
0.0000
0.0000
0.0000
0.0000
0.0000
0.0000
0.0000
0.0000
0.0000
0.0000
0.0000
0.0000
0.0000
0.0000
0.0000
0.0000
0.0000
0.0000
0.0000
0.0000
0.0000
0.0000
0.0000
0.0000
0.0000
0.0000
0.0000
0.0000
0.0000
0.0000
0.0000
0.0000
0.0000
0.0000
0.0000
0.0000
0.0000
0.0000
58.3626
58.3626
58.7640
59.7134
61.2315
63.0574
64.6475
65.6551
66.0149
65.8298
65.2570
64.4432
63.5019
62.5113
61.5210
60.5595
59.6416
58.7730
57.9540
57.1820
56.4530
55.7622
55.1048
54.4764
53.8729
53.2907
52.7265
52.1777
51.6418
51.1169
50.6013
50.0935
49.5923
49.0967
48.6058
48.1189
47.6353
47.1547
46.6764
46.2003
45.7258
45.2529
44.7812
44.3106
43.8409
43.3720
42.9038
42.4361
41.9690
41.5022
41.0358
40.5697
40.1039
39.6382
39.1728
38.7075
38.2423
37.7773
37.3123
36.8474
36.3825
35.9177
35.4529
34.9881
34.5233
34.0585
33.5937
33.1288
32.6639
32.1990
31.7339
31.2688
30.8037
30.3384
29.8730
29.4075
28.9420
28.4763
28.0105
27.5445
27.0785
26.6123
26.1461
25.6797
25.2132
24.7467
24.2801
23.8135
23.3469
22.8803
22.4139
21.9475
21.4814
21.0156
20.5501
20.0851
19.6206
19.1568
18.6938
18.2317
17.7706
17.3109
16.8525
16.3957
15.9408
15.4879
15.0372
14.5890
14.1436
13.7012
13.2622
12.8267
12.3951
11.9677
11.5448
11.1267
10.7138
10.3064
9.9047
9.5092
9.1201
8.7378
8.3625
7.9946
7.6344
7.2821
6.9380
6.6023
6.2753
5.9572
5.6482
5.3484
5.0580
4.7771
4.5058
4.2442
3.9923
3.7502
3.5177
3.2950
3.0820
2.8785
2.6844
2.4997
2.3242
2.1578
2.0001
1.8511
1.7105
1.5781
1.4536
1.3367
1.2273
1.1249
1.0294
0.9405
0.8577
0.7810
0.7099
0.6441
0.5834
0.5276
0.4762
0.4291
0.3860
0.3466
0.3106
0.2779
0.2482
0.2213
0.1969
0.1749
0.1551
0.1372
0.1212
0.1069
0.0940
0.0826
0.0724
0.0634
0.0554
0.0483
0.0420
0.0365
0.0316
0.0274
0.0236
0.0204
0.0175
0.0150
0.0129
0.0110
0.0094
0.0080
0.0068
0.0058
0.0049
0.0041
0.0035
0.0029
0.0025
0.0021
0.0017
0.0014
0.0012
0.0010
0.0008
0.0007
0.0006
0.0005
0.0004
0.0003
0.0003
0.0002
0.0002
0.0001
0.0001
0.0001
0.0001
0.0001
0.0000
0.0000
0.0000
0.0000
0.0000
0.0000
0.0000
0.0000
0.0000
0.0000
0.0000
0.0000
0.0000
0.0000
0.0000
0.0000
0.0000
0.0000
0.0000
0.0000
0.0000
0.0000
0.0000
0.0000
0.0000
0.0000
0.0000
0.0000
0.0000
0.0000
0.0000
0.0000
0.0000
0.0000
0.0000
0.0000
0.0000
0.0000
0.0000
0.0000
0.0000
0.0000
0.0000
0.0000
0.0000
0.0000
0.0000
0.0000
0.0000
0.0000
0.0000
0.0000
0.0000
0.0000
0.0000
0.0000
0.0000
0.0000
0.0000
0.0000
0.0000
0.0000
0.0000
0.0000
0.0000
0.0000
0.0000
0.0000
0.0000
0.0000
0.0000
0.0000
0.0000
0.0000
0.0000
0.0000
0.0000
0.0000
0.0000
0.0000
0.0000
63.1160
63.1160
64.0353
66.2577
69.8883
74.1675
77.2439
78.4974
78.1960
76.8657
74.9761
72.8574
70.7130
68.6558
66.7402
64.9861
63.3940
61.9542
60.6522
59.4722
58.3984
57.4162
56.5125
55.6757
54.8956
54.1637
53.4725
52.8158
52.1882
51.5852
51.0030
50.4384
49.8887
49.3516
48.8253
48.3080
47.7984
47.2954
46.7980
46.3053
45.8167
45.3315
44.8493
44.3696
43.8921
43.4165
42.9424
42.4697
41.9981
41.5275
41.0579
40.5889
40.1206
39.6528
39.1855
38.7186
38.2520
37.7857
37.3197
36.8538
36.3882
35.9226
35.4572
34.9919
34.5266
34.0614
33.5962
33.1311
32.6659
32.2007
31.7354
31.2701
30.8048
30.3394
29.8739
29.4083
28.9427
28.4769
28.0110
27.5450
27.0789
26.6127
26.1464
25.6800
25.2135
24.7469
24.2803
23.8136
23.3470
22.8804
22.4140
21.9476
21.4815
21.0157
20.5502
20.0851
19.6207
19.1568
18.6938
18.2317
17.7707
17.3109
16.8525
16.3957
15.9408
15.4879
15.0372
14.5890
14.1436
13.7012
13.2622
12.8267
12.3951
11.9677
11.5448
11.1267
10.7138
10.3064
9.9047
9.5092
9.1201
8.7378
8.3625
7.9946
7.6344
7.2821
6.9380
6.6023
6.2754
5.9572
5.6482
5.3484
5.0580
4.7771
4.5058
4.2442
3.9923
3.7502
3.5177
3.2950
3.0820
2.8785
2.6844
2.4997
2.3242
2.1578
2.0001
1.8511
1.7105
1.5781
1.4536
1.3367
1.2273
1.1249
1.0294
0.9405
0.8577
0.7810
0.7099
0.6441
0.5834
0.5276
0.4762
0.4291
0.3860
0.3466
0.3106
0.2779
0.2482
0.2213
0.1969
0.1749
0.1551
0.1372
0.1212
0.1069
0.0940
0.0826
0.0724
0.0634
0.0554
0.0483
0.0420
0.0365
0.0316
0.0274
0.0236
0.0204
0.0175
0.0150
0.0129
0.0110
0.0094
0.0080
0.0068
0.0058
0.0049
0.0041
0.0035
0.0029
0.0025
0.0021
0.0017
0.0014
0.0012
0.0010
0.0008
0.0007
0.0006
0.0005
0.0004
0.0003
0.0003
0.0002
0.0002
0.0001
0.0001
0.0001
0.0001
0.0001
0.0000
0.0000
0.0000
0.0000
0.0000
0.0000
0.0000
0.0000
0.0000
0.0000
0.0000
0.0000
0.0000
0.0000
0.0000
0.0000
0.0000
0.0000
0.0000
0.0000
0.0000
0.0000
0.0000
0.0000
0.0000
0.0000
0.0000
0.0000
0.0000
0.0000
0.0000
0.0000
0.0000
0.0000
0.0000
0.0000
0.0000
0.0000
0.0000
0.0000
0.0000
0.0000
0.0000
0.0000
0.0000
0.0000
0.0000
0.0000
0.0000
0.0000
0.0000
0.0000
0.0000
0.0000
0.0000
0.0000
0.0000
0.0000
0.0000
0.0000
0.0000
0.0000
0.0000
0.0000
0.0000
0.0000
0.0000
0.0000
0.0000
0.0000
0.0000
0.0000
0.0000
0.0000
0.0000
0.0000
0.0000
0.0000
0.0000
0.0000
0.0000
70.6392
70.6392
72.7091
77.9211
86.9132
97.6906
103.0739
103.1901
100.1344
95.6519
90.7887
86.0768
81.7479
77.8768
74.4619
71.4686
68.8500
66.5570
64.5439
62.7691
61.1966
59.7950
58.5379
57.4026
56.3700
55.4240
54.5510
53.7398
52.9806
52.2655
51.5876
50.9412
50.3216
49.7246
49.1469
48.5855
48.0381
47.5026
46.9772
46.4604
45.9510
45.4480
44.9503
44.4573
43.9682
43.4825
42.9998
42.5196
42.0416
41.5654
41.0908
40.6176
40.1456
39.6746
39.2045
38.7352
38.2665
37.7984
37.3308
36.8635
36.3966
35.9301
35.4637
34.9976
34.5316
34.0658
33.6001
33.1344
32.6688
32.2033
31.7377
31.2721
30.8066
30.3409
29.8753
29.4095
28.9437
28.4778
28.0118
27.5457
27.0795
26.6132
26.1469
25.6804
25.2138
24.7472
24.2806
23.8139
23.3473
22.8806
22.4141
21.9478
21.4816
21.0158
20.5503
20.0852
19.6207
19.1569
18.6939
18.2318
17.7707
17.3109
16.8525
16.3958
15.9408
15.4879
15.0372
14.5891
14.1436
13.7013
13.2622
12.8267
12.3951
11.9677
11.5448
11.1267
10.7138
10.3064
9.9047
9.5092
9.1201
8.7378
8.3625
7.9946
7.6344
7.2821
6.9380
6.6023
6.2754
5.9572
5.6482
5.3484
5.0580
4.7771
4.5058
4.2442
3.9923
3.7502
3.5177
3.2950
3.0820
2.8785
2.6844
2.4997
2.3242
2.1578
2.0001
1.8511
1.7105
1.5781
1.4536
1.3367
1.2273
1.1249
1.0294
0.9405
0.8577
0.7810
0.7099
0.6441
0.5834
0.5276
0.4762
0.4291
0.3860
0.3466
0.3106
0.2779
0.2482
0.2213
0.1969
0.1749
0.1551
0.1372
0.1212
0.1069
0.0940
0.0826
0.0724
0.0634
0.0554
0.0483
0.0420
0.0365
0.0316
0.0274
0.0236
0.0204
0.0175
0.0150
0.0129
0.0110
0.0094
0.0080
0.0068
0.0058
0.0049
0.0041
0.0035
0.0029
0.0025
0.0021
0.0017
0.0014
0.0012
0.0010
0.0008
0.0007
0.0006
0.0005
0.0004
0.0003
0.0003
0.0002
0.0002
0.0001
0.0001
0.0001
0.0001
0.0001
0.0000
0.0000
0.0000
0.0000
0.0000
0.0000
0.0000
0.0000
0.0000
0.0000
0.0000
0.0000
0.0000
0.0000
0.0000
0.0000
0.0000
0.0000
0.0000
0.0000
0.0000
0.0000
0.0000
0.0000
0.0000
0.0000
0.0000
0.0000
0.0000
0.0000
0.0000
0.0000
0.0000
0.0000
0.0000
0.0000
0.0000
0.0000
0.0000
0.0000
0.0000
0.0000
0.0000
0.0000
0.0000
0.0000
0.0000
0.0000
0.0000
0.0000
0.0000
0.0000
0.0000
0.0000
0.0000
0.0000
0.0000
0.0000
0.0000
0.0000
0.0000
0.0000
0.0000
0.0000
0.0000
0.0000
0.0000
0.0000
0.0000
0.0000
0.0000
0.0000
0.0000
0.0000
0.0000
0.0000
0.0000
0.0000
0.0000
0.0000
0.0000
81.7404
81.7404
86.1661
98.0650
120.8779
151.1898
156.5703
148.9255
137.1799
125.2612
114.5207
105.2572
97.3952
90.7524
85.1358
80.3720
76.3145
72.8417
69.8536
67.2684
65.0185
63.0487
61.3129
59.7732
58.3982
57.1615
56.0414
55.0196
54.0807
53.2121
52.4028
51.6439
50.9278
50.2480
49.5992
48.9766
48.3766
47.7956
47.2311
46.6806
46.1420
45.6137
45.0943
44.5824
44.0770
43.5772
43.0822
42.5914
42.1041
41.6199
41.1383
40.6591
40.1818
39.7062
39.2321
38.7593
38.2876
37.8168
37.3469
36.8776
36.4090
35.9409
35.4732
35.0059
34.5389
34.0722
33.6057
33.1393
32.6731
32.2070
31.7410
31.2751
30.8091
30.3432
29.8772
29.4113
28.9452
28.4791
28.0130
27.5467
27.0804
26.6140
26.1476
25.6810
25.2144
24.7477
24.2810
23.8143
23.3476
22.8809
22.4144
21.9480
21.4818
21.0160
20.5504
20.0854
19.6209
19.1570
18.6940
18.2318
17.7708
17.3110
16.8526
16.3958
15.9409
15.4879
15.0373
14.5891
14.1437
13.7013
13.2622
12.8267
12.3951
11.9677
11.5448
11.1267
10.7138
10.3064
9.9047
9.5092
9.1201
8.7378
8.3625
7.9946
7.6344
7.2821
6.9380
6.6023
6.2754
5.9573
5.6482
5.3484
5.0580
4.7771
4.5058
4.2442
3.9923
3.7502
3.5177
3.2950
3.0820
2.8785
2.6844
2.4997
2.3242
2.1578
2.0001
1.8511
1.7105
1.5781
1.4536
1.3367
1.2273
1.1249
1.0294
0.9405
0.8577
0.7810
0.7099
0.6441
0.5834
0.5276
0.4762
0.4291
0.3860
0.3466
0.3106
0.2779
0.2482
0.2213
0.1969
0.1749
0.1551
0.1372
0.1212
0.1069
0.0940
0.0826
0.0724
0.0634
0.0554
0.0483
0.0420
0.0365
0.0316
0.0274
0.0236
0.0204
0.0175
0.0150
0.0129
0.0110
0.0094
0.0080
0.0068
0.0058
0.0049
0.0041
0.0035
0.0029
0.0025
0.0021
0.0017
0.0014
0.0012
0.0010
0.0008
0.0007
0.0006
0.0005
0.0004
0.0003
0.0003
0.0002
0.0002
0.0001
0.0001
0.0001
0.0001
0.0001
0.0000
0.0000
0.0000
0.0000
0.0000
0.0000
0.0000
0.0000
0.0000
0.0000
0.0000
0.0000
0.0000
0.0000
0.0000
0.0000
0.0000
0.0000
0.0000
0.0000
0.0000
0.0000
0.0000
0.0000
0.0000
0.0000
0.0000
0.0000
0.0000
0.0000
0.0000
0.0000
0.0000
0.0000
0.0000
0.0000
0.0000
0.0000
0.0000
0.0000
0.0000
0.0000
0.0000
0.0000
0.0000
0.0000
0.0000
0.0000
0.0000
0.0000
0.0000
0.0000
0.0000
0.0000
0.0000
0.0000
0.0000
0.0000
0.0000
0.0000
0.0000
0.0000
0.0000
0.0000
0.0000
0.0000
0.0000
0.0000