# vtk DataFile Version 5.0
Example 3D regular grid VTK file.
ASCII
DATASET UNSTRUCTURED_GRID
POINTS 90601 float
0 0 0
0 10 0
0 20 0
0 30 0
0 40 0
0 50 0
0 60 0
0 70 0
0 80 0
0 90 0
0 100 0
0 110 0
0 120 0
0 130 0
0 140 0
0 150 0
0 160 0
0 170 0
0 180 0
0 190 0
0 200 0
0 210 0
0 220 0
0 230 0
0 240 0
0 250 0
0 260 0
0 270 0
0 280 0
0 290 0
0 300 0
0 310 0
0 320 0
0 330 0
0 340 0
0 350 0
0 360 0
0 370 0
0 380 0
0 390 0
0 400 0
0 410 0
0 420 0
0 430 0
0 440 0
0 450 0
0 460 0
0 470 0
0 480 0
0 490 0
0 500 0
0 510 0
0 520 0
0 530 0
0 540 0
0 550 0
0 560 0
0 570 0
0 580 0
0 590 0
0 600 0
0 610 0
0 620 0
0 630 0
0 640 0
0 650 0
0 660 0
0 670 0
0 680 0
0 690 0
0 700 0
0 710 0
0 720 0
0 730 0
0 740 0
0 750 0
0 760 0
0 770 0
0 780 0
0 790 0
0 800 0
0 810 0
0 820 0
0 830 0
0 840 0
0 850 0
0 860 0
0 870 0
0 880 0
0 890 0
0 900 0
0 910 0
0 920 0
0 930 0
0 940 0
0 950 0
0 960 0
0 970 0
0 980 0
0 990 0
0 1000 0
0 1010 0
0 1020 0
0 1030 0
0 1040 0
0 1050 0
0 1060 0
0 1070 0
0 1080 0
0 1090 0
0 1100 0
0 1110 0
0 1120 0
0 1130 0
0 1140 0
0 1150 0
0 1160 0
0 1170 0
0 1180 0
0 1190 0
0 1200 0
0 1210 0
0 1220 0
0 1230 0
0 1240 0
0 1250 0
0 1260 0
0 1270 0
0 1280 0
0 1290 0
0 1300 0
0 1310 0
0 1320 0
0 1330 0
0 1340 0
0 1350 0
0 1360 0
0 1370 0
0 1380 0
0 1390 0
0 1400 0
0 1410 0
0 1420 0
0 1430 0
0 1440 0
0 1450 0
0 1460 0
0 1470 0
0 1480 0
0 1490 0
0 1500 0
0 1510 0
0 1520 0
0 1530 0
0 1540 0
0 1550 0
0 1560 0
0 1570 0
0 1580 0
0 1590 0
0 1600 0
0 1610 0
0 1620 0
0 1630 0
0 1640 0
0 1650 0
0 1660 0
0 1670 0
0 1680 0
0 1690 0
0 1700 0
0 1710 0
0 1720 0
0 1730 0
0 1740 0
0 1750 0
0 1760 0
0 1770 0
0 1780 0
0 1790 0
0 1800 0
0 1810 0
0 1820 0
0 1830 0
0 1840 0
0 1850 0
0 1860 0
0 1870 0
0 1880 0
0 1890 0
0 1900 0
0 1910 0
0 1920 0
0 1930 0
0 1940 0
0 1950 0
0 1960 0
0 1970 0
0 1980 0
0 1990 0
0 2000 0
0 2010 0
0 2020 0
0 2030 0
0 2040 0
0 2050 0
0 2060 0
0 2070 0
0 2080 0
0 2090 0
0 2100 0
0 2110 0
0 2120 0
0 2130 0
0 2140 0
0 2150 0
0 2160 0
0 2170 0
0 2180 0
0 2190 0
0 2200 0
0 2210 0
0 2220 0
0 2230 0
0 2240 0
0 2250 0
0 2260 0
0 2270 0
0 2280 0
0 2290 0
0 2300 0
0 2310 0
0 2320 0
0 2330 0
0 2340 0
0 2350 0
0 2360 0
0 2370 0
0 2380 0
0 2390 0
0 2400 0
0 2410 0
0 2420 0
0 2430 0
0 2440 0
0 2450 0
0 2460 0
0 2470 0
0 2480 0
0 2490 0
0 2500 0
0 2510 0
0 2520 0
0 2530 0
0 2540 0
0 2550 0
0 2560 0
0 2570 0
0 2580 0
0 2590 0
0 2600 0
0 2610 0
0 2620 0
0 2630 0
0 2640 0
0 2650 0
0 2660 0
0 2670 0
0 2680 0
0 2690 0
0 2700 0
0 2710 0
0 2720 0
0 2730 0
0 2740 0
0 2750 0
0 2760 0
0 2770 0
0 2780 0
0 2790 0
0 2800 0
0 2810 0
0 2820 0
0 2830 0
0 2840 0
0 2850 0
0 2860 0
0 2870 0
0 2880 0
0 2890 0
0 2900 0
0 2910 0
0 2920 0
0 2930 0
0 2940 0
0 2950 0
0 2960 0
0 2970 0
0 2980 0
0 2990 0
0 3000 0
10 0 0
10 10 0
10 20 0
10 30 0
10 40 0
10 50 0
10 60 0
10 70 0
10 80 0
10 90 0
10 100 0
10 110 0
10 120 0
10 130 0
10 140 0
10 150 0
10 160 0
10 170 0
10 180 0
10 190 0
10 200 0
10 210 0
10 220 0
10 230 0
10 240 0
10 250 0
10 260 0
10 270 0
10 280 0
10 290 0
10 300 0
10 310 0
10 320 0
10 330 0
10 340 0
10 350 0
10 360 0
10 370 0
10 380 0
10 390 0
10 400 0
10 410 0
10 420 0
10 430 0
10 440 0
10 450 0
10 460 0
10 470 0
10 480 0
10 490 0
10 500 0
10 510 0
10 520 0
10 530 0
10 540 0
10 550 0
10 560 0
10 570 0
10 580 0
10 590 0
10 600 0
10 610 0
10 620 0
10 630 0
10 640 0
10 650 0
10 660 0
10 670 0
10 680 0
10 690 0
10 700 0
10 710 0
10 720 0
10 730 0
10 740 0
10 750 0
10 760 0
10 770 0
10 780 0
10 790 0
10 800 0
10 810 0
10 820 0
10 830 0
10 840 0
10 850 0
10 860 0
10 870 0
10 880 0
10 890 0
10 900 0
10 910 0
10 920 0
10 930 0
10 940 0
10 950 0
10 960 0
10 970 0
10 980 0
10 990 0
10 1000 0
10 1010 0
10 1020 0
10 1030 0
10 1040 0
10 1050 0
10 1060 0
10 1070 0
10 1080 0
10 1090 0
10 1100 0
10 1110 0
10 1120 0
10 1130 0
10 1140 0
10 1150 0
10 1160 0
10 1170 0
10 1180 0
10 1190 0
10 1200 0
10 1210 0
10 1220 0
10 1230 0
10 1240 0
10 1250 0
10 1260 0
10 1270 0
10 1280 0
10 1290 0
10 1300 0
10 1310 0
10 1320 0
10 1330 0
10 1340 0
10 1350 0
10 1360 0
10 1370 0
10 1380 0
10 1390 0
10 1400 0
10 1410 0
10 1420 0
10 1430 0
10 1440 0
10 1450 0
10 1460 0
10 1470 0
10 1480 0
10 1490 0
10 1500 0
10 1510 0
10 1520 0
10 1530 0
10 1540 0
10 1550 0
10 1560 0
10 1570 0
10 1580 0
10 1590 0
10 1600 0
10 1610 0
10 1620 0
10 1630 0
10 1640 0
10 1650 0
10 1660 0
10 1670 0
10 1680 0
10 1690 0
10 1700 0
10 1710 0
10 1720 0
10 1730 0
10 1740 0
10 1750 0
10 1760 0
10 1770 0
10 1780 0
10 1790 0
10 1800 0
10 1810 0
10 1820 0
10 1830 0
10 1840 0
10 1850 0
10 1860 0
10 1870 0
10 1880 0
10 1890 0
10 1900 0
10 1910 0
10 1920 0
10 1930 0
10 1940 0
10 1950 0
10 1960 0
10 1970 0
10 1980 0
10 1990 0
10 2000 0
10 2010 0
10 2020 0
10 2030 0
10 2040 0
10 2050 0
10 2060 0
10 2070 0
10 2080 0
10 2090 0
10 2100 0
10 2110 0
10 2120 0
10 2130 0
10 2140 0
10 2150 0
10 2160 0
10 2170 0
10 2180 0
10 2190 0
10 2200 0
10 2210 0
10 2220 0
10 2230 0
10 2240 0
10 2250 0
10 2260 0
10 2270 0
10 2280 0
10 2290 0
10 2300 0
10 2310 0
10 2320 0
10 2330 0
10 2340 0
10 2350 0
10 2360 0
10 2370 0
10 2380 0
10 2390 0
10 2400 0
10 2410 0
10 2420 0
10 2430 0
10 2440 0
10 2450 0
10 2460 0
10 2470 0
10 2480 0
10 2490 0
10 2500 0
10 2510 0
10 2520 0
10 2530 0
10 2540 0
10 2550 0
10 2560 0
10 2570 0
10 2580 0
10 2590 0
10 2600 0
10 2610 0
10 2620 0
10 2630 0
10 2640 0
10 2650 0
10 2660 0
10 2670 0
10 2680 0
10 2690 0
10 2700 0
10 2710 0
10 2720 0
10 2730 0
10 2740 0
10 2750 0
10 2760 0
10 2770 0
10 2780 0
10 2790 0
10 2800 0
10 2810 0
10 2820 0
10 2830 0
10 2840 0
10 2850 0
10 2860 0
10 2870 0
10 2880 0
10 2890 0
10 2900 0
10 2910 0
10 2920 0
10 2930 0
10 2940 0
10 2950 0
10 2960 0
10 2970 0
10 2980 0
10 2990 0
10 3000 0
20 0 0
20 10 0
20 20 0
20 30 0
20 40 0
20 50 0
20 60 0
20 70 0
20 80 0
20 90 0
20 100 0
20 110 0
20 120 0
20 130 0
20 140 0
20 150 0
20 160 0
20 170 0
20 180 0
20 190 0
20 200 0
20 210 0
20 220 0
20 230 0
20 240 0
20 250 0
20 260 0
20 270 0
20 280 0
20 290 0
20 300 0
20 310 0
20 320 0
20 330 0
20 340 0
20 350 0
20 360 0
20 370 0
20 380 0
20 390 0
20 400 0
20 410 0
20 420 0
20 430 0
20 440 0
20 450 0
20 460 0
20 470 0
20 480 0
20 490 0
20 500 0
20 510 0
20 520 0
20 530 0
20 540 0
20 550 0
20 560 0
20 570 0
20 580 0
20 590 0
20 600 0
20 610 0
20 620 0
20 630 0
20 640 0
20 650 0
20 660 0
20 670 0
20 680 0
20 690 0
20 700 0
20 710 0
20 720 0
20 730 0
20 740 0
20 750 0
20 760 0
20 770 0
20 780 0
20 790 0
20 800 0
20 810 0
20 820 0
20 830 0
20 840 0
20 850 0
20 860 0
20 870 0
20 880 0
20 890 0
20 900 0
20 910 0
20 920 0
20 930 0
20 940 0
20 950 0
20 960 0
20 970 0
20 980 0
20 990 0
20 1000 0
20 1010 0
20 1020 0
20 1030 0
20 1040 0
20 1050 0
20 1060 0
20 1070 0
20 1080 0
20 1090 0
20 1100 0
20 1110 0
20 1120 0
20 1130 0
20 1140 0
20 1150 0
20 1160 0
20 1170 0
20 1180 0
20 1190 0
20 1200 0
20 1210 0
20 1220 0
20 1230 0
20 1240 0
20 1250 0
20 1260 0
20 1270 0
20 1280 0
20 1290 0
20 1300 0
20 1310 0
20 1320 0
20 1330 0
20 1340 0
20 1350 0
20 1360 0
20 1370 0
20 1380 0
20 1390 0
20 1400 0
20 1410 0
20 1420 0
20 1430 0
20 1440 0
20 1450 0
20 1460 0
20 1470 0
20 1480 0
20 1490 0
20 1500 0
20 1510 0
20 1520 0
20 1530 0
20 1540 0
20 1550 0
20 1560 0
20 1570 0
20 1580 0
20 1590 0
20 1600 0
20 1610 0
20 1620 0
20 1630 0
20 1640 0
20 1650 0
20 1660 0
20 1670 0
20 1680 0
20 1690 0
20 1700 0
20 1710 0
20 1720 0
20 1730 0
20 1740 0
20 1750 0
20 1760 0
20 1770 0
20 1780 0
20 1790 0
20 1800 0
20 1810 0
20 1820 0
20 1830 0
20 1840 0
20 1850 0
20 1860 0
20 1870 0
20 1880 0
20 1890 0
20 1900 0
20 1910 0
20 1920 0
20 1930 0
20 1940 0
20 1950 0
20 1960 0
20 1970 0
20 1980 0
20 1990 0
20 2000 0
20 2010 0
20 2020 0
20 2030 0
20 2040 0
20 2050 0
20 2060 0
20 2070 0
20 2080 0
20 2090 0
20 2100 0
20 2110 0
20 2120 0
20 2130 0
20 2140 0
20 2150 0
20 2160 0
20 2170 0
20 2180 0
20 2190 0
20 2200 0
20 2210 0
20 2220 0
20 2230 0
20 2240 0
20 2250 0
20 2260 0
20 2270 0
20 2280 0
20 2290 0
20 2300 0
20 2310 0
20 2320 0
20 2330 0
20 2340 0
20 2350 0
20 2360 0
20 2370 0
20 2380 0
20 2390 0
20 2400 0
20 2410 0
20 2420 0
20 2430 0
20 2440 0
20 2450 0
20 2460 0
20 2470 0
20 2480 0
20 2490 0
20 2500 0
20 2510 0
20 2520 0
20 2530 0
20 2540 0
20 2550 0
20 2560 0
20 2570 0
20 2580 0
20 2590 0
20 2600 0
20 2610 0
20 2620 0
20 2630 0
20 2640 0
20 2650 0
20 2660 0
20 2670 0
20 2680 0
20 2690 0
20 2700 0
20 2710 0
20 2720 0
20 2730 0
20 2740 0
20 2750 0
20 2760 0
20 2770 0
20 2780 0
20 2790 0
20 2800 0
20 2810 0
20 2820 0
20 2830 0
20 2840 0
20 2850 0
20 2860 0
20 2870 0
20 2880 0
20 2890 0
20 2900 0
20 2910 0
20 2920 0
20 2930 0
20 2940 0
20 2950 0
20 2960 0
20 2970 0
20 2980 0
20 2990 0
20 3000 0
30 0 0
30 10 0
30 20 0
30 30 0
30 40 0
30 50 0
30 60 0
30 70 0
30 80 0
30 90 0
30 100 0
30 110 0
30 120 0
30 130 0
30 140 0
30 150 0
30 160 0
30 170 0
30 180 0
30 190 0
30 200 0
30 210 0
30 220 0
30 230 0
30 240 0
30 250 0
30 260 0
30 270 0
30 280 0
30 290 0
30 300 0
30 310 0
30 320 0
30 330 0
30 340 0
30 350 0
30 360 0
30 370 0
30 380 0
30 390 0
30 400 0
30 410 0
30 420 0
30 430 0
30 440 0
30 450 0
30 460 0
30 470 0
30 480 0
30 490 0
30 500 0
30 510 0
30 520 0
30 530 0
30 540 0
30 550 0
30 560 0
30 570 0
30 580 0
30 590 0
30 600 0
30 610 0
30 620 0
30 630 0
30 640 0
30 650 0
30 660 0
30 670 0
30 680 0
30 690 0
30 700 0
30 710 0
30 720 0
30 730 0
30 740 0
30 750 0
30 760 0
30 770 0
30 780 0
30 790 0
30 800 0
30 810 0
30 820 0
30 830 0
30 840 0
30 850 0
30 860 0
30 870 0
30 880 0
30 890 0
30 900 0
30 910 0
30 920 0
30 930 0
30 940 0
30 950 0
30 960 0
30 970 0
30 980 0
30 990 0
30 1000 0
30 1010 0
30 1020 0
30 1030 0
30 1040 0
30 1050 0
30 1060 0
30 1070 0
30 1080 0
30 1090 0
30 1100 0
30 1110 0
30 1120 0
30 1130 0
30 1140 0
30 1150 0
30 1160 0
30 1170 0
30 1180 0
30 1190 0
30 1200 0
30 1210 0
30 1220 0
30 1230 0
30 1240 0
30 1250 0
30 1260 0
30 1270 0
30 1280 0
30 1290 0
30 1300 0
30 1310 0
30 1320 0
30 1330 0
30 1340 0
30 1350 0
30 1360 0
30 1370 0
30 1380 0
30 1390 0
30 1400 0
30 1410 0
30 1420 0
30 1430 0
30 1440 0
30 1450 0
30 1460 0
30 1470 0
30 1480 0
30 1490 0
30 1500 0
30 1510 0
30 1520 0
30 1530 0
30 1540 0
30 1550 0
30 1560 0
30 1570 0
30 1580 0
30 1590 0
[...]
POINT_DATA 90601
SCALARS P float
LOOKUP_TABLE default
57.6103
57.6103
57.6472
57.7353
57.8833
58.0900
58.3431
58.6218
58.9015
59.1594
59.3772
59.5424
59.6483
59.6926
59.6766
59.6039
59.4792
59.3078
59.0952
58.8466
58.5667
58.2599
57.9301
57.5805
57.2141
56.8333
56.4404
56.0370
55.6249
55.2052
54.7791
54.3476
53.9114
53.4713
53.0278
52.5814
52.1325
51.6815
51.2287
50.7744
50.3187
49.8618
49.4040
48.9453
48.4859
48.0259
47.5653
47.1043
46.6429
46.1811
45.7190
45.2566
44.7940
44.3312
43.8682
43.4051
42.9418
42.4785
42.0150
41.5514
41.0877
40.6240
40.1602
39.6963
39.2324
38.7684
38.3044
37.8403
37.3761
36.9119
36.4477
35.9834
35.5190
35.0546
34.5901
34.1255
33.6609
33.1962
32.7314
32.2665
31.8016
31.3366
30.8714
30.4062
29.9409
29.4755
29.0100
28.5444
28.0787
27.6129
27.1470
26.6811
26.2152
25.7491
25.2831
24.8171
24.3511
23.8853
23.4195
22.9539
22.4885
22.0235
21.5588
21.0945
20.6308
20.1677
19.7053
19.2438
18.7833
18.3239
17.8659
17.4092
16.9542
16.5010
16.0499
15.6009
15.1544
14.7106
14.2697
13.8320
13.3977
12.9671
12.5405
12.1181
11.7003
11.2874
10.8796
10.4772
10.0805
9.6898
9.3055
8.9277
8.5568
8.1930
7.8366
7.4879
7.1470
6.8142
6.4898
6.1738
5.8664
5.5679
5.2783
4.9978
4.7264
4.4643
4.2114
3.9678
3.7334
3.5083
3.2925
3.0858
2.8882
2.6995
2.5197
2.3486
2.1860
2.0318
1.8857
1.7476
1.6173
1.4945
1.3789
1.2704
1.1686
1.0734
0.9844
0.9014
0.8241
0.7523
0.6856
0.6239
0.5668
0.5141
0.4655
0.4209
0.3799
0.3423
0.3080
0.2766
0.2481
0.2221
0.1984
0.1770
0.1577
0.1402
0.1245
0.1103
0.0976
0.0861
0.0759
0.0668
0.0587
0.0515
0.0451
0.0394
0.0344
0.0299
0.0260
0.0226
0.0195
0.0169
0.0146
0.0126
0.0108
0.0093
0.0080
0.0068
0.0058
0.0049
0.0042
0.0036
0.0030
0.0026
0.0022
0.0018
0.0015
0.0013
0.0011
0.0009
0.0008
0.0006
0.0005
0.0004
0.0004
0.0003
0.0002
0.0002
0.0002
0.0001
0.0001
0.0001
0.0001
0.0001
0.0001
0.0000
0.0000
0.0000
0.0000
0.0000
0.0000
0.0000
0.0000
0.0000
0.0000
0.0000
0.0000
0.0000
0.0000
0.0000
0.0000
0.0000
0.0000
0.0000
0.0000
0.0000
0.0000
0.0000
0.0000
0.0000
0.0000
0.0000
0.0000
0.0000
0.0000
0.0000
0.0000
0.0000
0.0000
0.0000
0.0000
0.0000
0.0000
0.0000
0.0000
0.0000
0.0000
0.0000
0.0000
0.0000
0.0000
0.0000
0.0000
0.0000
0.0000
0.0000
0.0000
0.0000
0.0000
0.0000
0.0000
0.0000
0.0000
0.0000
0.0000
0.0000
0.0000
0.0000
0.0000
0.0000
0.0000
57.6103
57.6103
57.6472
57.7353
57.8833
58.0900
58.3431
58.6218
58.9015
59.1594
59.3772
59.5424
59.6483
59.6926
59.6766
59.6039
59.4792
59.3078
59.0952
58.8466
58.5667
58.2599
57.9301
57.5805
57.2141
56.8333
56.4404
56.0370
55.6249
55.2052
54.7791
54.3476
53.9114
53.4713
53.0278
52.5814
52.1325
51.6815
51.2287
50.7744
50.3187
49.8618
49.4040
48.9453
48.4859
48.0259
47.5653
47.1043
46.6429
46.1811
45.7190
45.2566
44.7940
44.3312
43.8682
43.4051
42.9418
42.4785
42.0150
41.5514
41.0877
40.6240
40.1602
39.6963
39.2324
38.7684
38.3044
37.8403
37.3761
36.9119
36.4477
35.9834
35.5190
35.0546
34.5901
34.1255
33.6609
33.1962
32.7314
32.2665
31.8016
31.3366
30.8714
30.4062
29.9409
29.4755
29.0100
28.5444
28.0787
27.6129
27.1470
26.6811
26.2152
25.7491
25.2831
24.8171
24.3511
23.8853
23.4195
22.9539
22.4885
22.0235
21.5588
21.0945
20.6308
20.1677
19.7053
19.2438
18.7833
18.3239
17.8659
17.4092
16.9542
16.5010
16.0499
15.6009
15.1544
14.7106
14.2697
13.8320
13.3977
12.9671
12.5405
12.1181
11.7003
11.2874
10.8796
10.4772
10.0805
9.6898
9.3055
8.9277
8.5568
8.1930
7.8366
7.4879
7.1470
6.8142
6.4898
6.1738
5.8664
5.5679
5.2783
4.9978
4.7264
4.4643
4.2114
3.9678
3.7334
3.5083
3.2925
3.0858
2.8882
2.6995
2.5197
2.3486
2.1860
2.0318
1.8857
1.7476
1.6173
1.4945
1.3789
1.2704
1.1686
1.0734
0.9844
0.9014
0.8241
0.7523
0.6856
0.6239
0.5668
0.5141
0.4655
0.4209
0.3799
0.3423
0.3080
0.2766
0.2481
0.2221
0.1984
0.1770
0.1577
0.1402
0.1245
0.1103
0.0976
0.0861
0.0759
0.0668
0.0587
0.0515
0.0451
0.0394
0.0344
0.0299
0.0260
0.0226
0.0195
0.0169
0.0146
0.0126
0.0108
0.0093
0.0080
0.0068
0.0058
0.0049
0.0042
0.0036
0.0030
0.0026
0.0022
0.0018
0.0015
0.0013
0.0011
0.0009
0.0008
0.0006
0.0005
0.0004
0.0004
0.0003
0.0002
0.0002
0.0002
0.0001
0.0001
0.0001
0.0001
0.0001
0.0001
0.0000
0.0000
0.0000
0.0000
0.0000
0.0000
0.0000
0.0000
0.0000
0.0000
0.0000
0.0000
0.0000
0.0000
0.0000
0.0000
0.0000
0.0000
0.0000
0.0000
0.0000
0.0000
0.0000
0.0000
0.0000
0.0000
0.0000
0.0000
0.0000
0.0000
0.0000
0.0000
0.0000
0.0000
0.0000
0.0000
0.0000
0.0000
0.0000
0.0000
0.0000
0.0000
0.0000
0.0000
0.0000
0.0000
0.0000
0.0000
0.0000
0.0000
0.0000
0.0000
0.0000
0.0000
0.0000
0.0000
0.0000
0.0000
0.0000
0.0000
0.0000
0.0000
0.0000
0.0000
0.0000
0.0000
57.9016
57.9016
57.9503
58.0659
58.2573
58.5179
58.8248
59.1458
59.4493
59.7101
59.9120
60.0468
60.1128
60.1123
60.0502
59.9326
59.7658
59.5560
59.3091
59.0302
58.7239
58.3942
58.0447
57.6783
57.2975
56.9045
56.5011
56.0888
55.6691
55.2430
54.8115
54.3753
53.9351
53.4916
53.0452
52.5964
52.1454
51.6926
51.2382
50.7826
50.3258
49.8680
49.4093
48.9499
48.4899
48.0293
47.5683
47.1069
46.6451
46.1830
45.7206
45.2581
44.7953
44.3323
43.8692
43.4059
42.9426
42.4791
42.0155
41.5519
41.0882
40.6244
40.1605
39.6966
39.2327
38.7686
38.3046
37.8404
37.3763
36.9121
36.4478
35.9835
35.5191
35.0546
34.5901
34.1256
33.6609
33.1962
32.7314
32.2666
31.8016
31.3366
30.8715
30.4062
29.9409
29.4755
29.0100
28.5444
28.0787
27.6129
27.1471
26.6811
26.2152
25.7491
25.2831
24.8171
24.3511
23.8853
23.4195
22.9539
22.4885
22.0235
21.5588
21.0945
20.6308
20.1677
19.7053
19.2438
18.7833
18.3239
17.8659
17.4092
16.9542
16.5010
16.0499
15.6009
15.1544
14.7106
14.2697
13.8320
13.3977
12.9671
12.5405
12.1181
11.7003
11.2874
10.8796
10.4772
10.0805
9.6898
9.3055
8.9277
8.5568
8.1930
7.8366
7.4879
7.1470
6.8142
6.4898
6.1738
5.8664
5.5679
5.2783
4.9978
4.7264
4.4643
4.2114
3.9678
3.7334
3.5083
3.2925
3.0858
2.8882
2.6995
2.5197
2.3486
2.1860
2.0318
1.8857
1.7476
1.6173
1.4945
1.3789
1.2704
1.1686
1.0734
0.9844
0.9014
0.8241
0.7523
0.6856
0.6239
0.5668
0.5141
0.4655
0.4209
0.3799
0.3423
0.3080
0.2766
0.2481
0.2221
0.1984
0.1770
0.1577
0.1402
0.1245
0.1103
0.0976
0.0861
0.0759
0.0668
0.0587
0.0515
0.0451
0.0394
0.0344
0.0299
0.0260
0.0226
0.0195
0.0169
0.0146
0.0126
0.0108
0.0093
0.0080
0.0068
0.0058
0.0049
0.0042
0.0036
0.0030
0.0026
0.0022
0.0018
0.0015
0.0013
0.0011
0.0009
0.0008
0.0006
0.0005
0.0004
0.0004
0.0003
0.0002
0.0002
0.0002
0.0001
0.0001
0.0001
0.0001
0.0001
0.0001
0.0000
0.0000
0.0000
0.0000
0.0000
0.0000
0.0000
0.0000
0.0000
0.0000
0.0000
0.0000
0.0000
0.0000
0.0000
0.0000
0.0000
0.0000
0.0000
0.0000
0.0000
0.0000
0.0000
0.0000
0.0000
0.0000
0.0000
0.0000
0.0000
0.0000
0.0000
0.0000
0.0000
0.0000
0.0000
0.0000
0.0000
0.0000
0.0000
0.0000
0.0000
0.0000
0.0000
0.0000
0.0000
0.0000
0.0000
0.0000
0.0000
0.0000
0.0000
0.0000
0.0000
0.0000
0.0000
0.0000
0.0000
0.0000
0.0000
0.0000
0.0000
0.0000
0.0000
0.0000
0.0000
0.0000
58.6781
58.6781
58.7635
58.9644
59.2900
59.7146
60.1780
60.6132
60.9699
61.2217
61.3628
61.4002
61.3470
61.2183
61.0279
60.7879
60.5083
60.1968
59.8597
59.5019
59.1271
58.7385
58.3384
57.9287
57.5110
57.0865
56.6564
56.2214
55.7824
55.3398
54.8943
54.4462
53.9959
53.5438
53.0900
52.6348
52.1784
51.7210
51.2628
50.8037
50.3440
49.8837
49.4229
48.9617
48.5001
48.0382
47.5759
47.1135
46.6508
46.1880
45.7250
45.2618
44.7985
44.3352
43.8717
43.4081
42.9445
42.4807
42.0170
41.5531
41.0893
40.6253
40.1614
39.6973
39.2333
38.7692
38.3050
37.8409
37.3766
36.9124
36.4481
35.9837
35.5193
35.0548
34.5903
34.1257
33.6611
33.1963
32.7315
32.2667
31.8017
31.3366
30.8715
30.4063
29.9410
29.4755
29.0100
28.5444
28.0787
27.6129
27.1471
26.6812
26.2152
25.7492
25.2831
24.8171
24.3512
23.8853
23.4195
22.9539
22.4886
22.0235
21.5588
21.0945
20.6308
20.1677
19.7053
19.2438
18.7833
18.3239
17.8659
17.4092
16.9542
16.5010
16.0499
15.6009
15.1544
14.7106
14.2697
13.8320
13.3977
12.9671
12.5405
12.1181
11.7003
11.2874
10.8796
10.4772
10.0805
9.6898
9.3055
8.9277
8.5568
8.1930
7.8366
7.4879
7.1470
6.8142
6.4898
6.1738
5.8664
5.5679
5.2783
4.9978
4.7264
4.4643
4.2114
3.9678
3.7334
3.5083
3.2925
3.0858
2.8882
2.6995
2.5197
2.3486
2.1860
2.0318
1.8857
1.7476
1.6173
1.4945
1.3789
1.2704
1.1686
1.0734
0.9844
0.9014
0.8241
0.7523
0.6856
0.6239
0.5668
0.5141
0.4655
0.4209
0.3799
0.3423
0.3080
0.2766
0.2481
0.2221
0.1984
0.1770
0.1577
0.1402
0.1245
0.1103
0.0976
0.0861
0.0759
0.0668
0.0587
0.0515
0.0451
0.0394
0.0344
0.0299
0.0260
0.0226
0.0195
0.0169
0.0146
0.0126
0.0108
0.0093
0.0080
0.0068
0.0058
0.0049
0.0042
0.0036
0.0030
0.0026
0.0022
0.0018
0.0015
0.0013
0.0011
0.0009
0.0008
0.0006
0.0005
0.0004
0.0004
0.0003
0.0002
0.0002
0.0002
0.0001
0.0001
0.0001
0.0001
0.0001
0.0001
0.0000
0.0000
0.0000
0.0000
0.0000
0.0000
0.0000
0.0000
0.0000
0.0000
0.0000
0.0000
0.0000
0.0000
0.0000
0.0000
0.0000
0.0000
0.0000
0.0000
0.0000
0.0000
0.0000
0.0000
0.0000
0.0000
0.0000
0.0000
0.0000
0.0000
0.0000
0.0000
0.0000
0.0000
0.0000
0.0000
0.0000
0.0000
0.0000
0.0000
0.0000
0.0000
0.0000
0.0000
0.0000
0.0000
0.0000
0.0000
0.0000
0.0000
0.0000
0.0000
0.0000
0.0000
0.0000
0.0000
0.0000
0.0000
0.0000
0.0000
0.0000
0.0000
0.0000
0.0000
0.0000
0.0000
60.2466
60.2466
60.4250
60.8435
61.5126
62.3471
63.1720
63.8327
64.2510
64.4192
64.3711
64.1555
63.8202
63.4051
62.9400
62.4463
61.9380
61.4241
60.9102
60.3992
59.8926
59.3910
58.8945
58.4026
57.9150
57.4311
56.9504
56.4725
55.9969
55.5233
55.0514
54.5808
54.1113
53.6428
53.1751
52.7080
52.2414
51.7753
51.3095
50.8440
50.3788
49.9137
49.4489
48.9842
48.5195
48.0550
47.5906
47.1262
46.6618
46.1975
45.7333
45.2690
44.8048
44.3406
43.8764
43.4122
42.9481
42.4839
42.0197
41.5555
41.0914
40.6272
40.1630
39.6987
39.2345
38.7703
38.3060
37.8417
37.3774
36.9130
36.4486
35.9842
35.5197
35.0552
34.5906
34.1260
33.6613
33.1966
32.7317
32.2668
31.8018
31.3368
30.8716
30.4064
29.9410
29.4756
29.0101
28.5445
28.0788
27.6130
27.1471
26.6812
26.2152
25.7492
25.2832
24.8171
24.3512
23.8853
23.4195
22.9539
22.4886
22.0235
21.5588
21.0945
20.6308
20.1677
19.7053
19.2438
18.7833
18.3239
17.8659
17.4092
16.9542
16.5010
16.0499
15.6009
15.1544
14.7106
14.2697
13.8320
13.3977
12.9671
12.5405
12.1181
11.7003
11.2874
10.8796
10.4772
10.0805
9.6898
9.3055
8.9277
8.5568
8.1930
7.8366
7.4879
7.1470
6.8142
6.4898
6.1738
5.8664
5.5679
5.2783
4.9978
4.7264
4.4643
4.2114
3.9678
3.7334
3.5083
3.2925
3.0858
2.8882
2.6995
2.5197
2.3486
2.1860
2.0318
1.8857
1.7476
1.6173
1.4945
1.3789
1.2704
1.1686
1.0734
0.9844
0.9014
0.8241
0.7523
0.6856
0.6239
0.5668
0.5141
0.4655
0.4209
0.3799
0.3423
0.3080
0.2766
0.2481
0.2221
0.1984
0.1770
0.1577
0.1402
0.1245
0.1103
0.0976
0.0861
0.0759
0.0668
0.0587
0.0515
0.0451
0.0394
0.0344
0.0299
0.0260
0.0226
0.0195
0.0169
0.0146
0.0126
0.0108
0.0093
0.0080
0.0068
0.0058
0.0049
0.0042
0.0036
0.0030
0.0026
0.0022
0.0018
0.0015
0.0013
0.0011
0.0009
0.0008
0.0006
0.0005
0.0004
0.0004
0.0003
0.0002
0.0002
0.0002
0.0001
0.0001
0.0001
0.0001
0.0001
0.0001
0.0000
0.0000
0.0000
0.0000
0.0000
0.0000
0.0000
0.0000
0.0000
0.0000
0.0000
0.0000
0.0000
0.0000
0.0000
0.0000
0.0000
0.0000
0.0000
0.0000
0.0000
0.0000
0.0000
0.0000
0.0000
0.0000
0.0000
0.0000
0.0000
0.0000
0.0000
0.0000
0.0000
0.0000
0.0000
0.0000
0.0000
0.0000
0.0000
0.0000
0.0000
0.0000
0.0000
0.0000
0.0000
0.0000
0.0000
0.0000
0.0000
0.0000
0.0000
0.0000
0.0000
0.0000
0.0000
0.0000
0.0000
0.0000
0.0000
0.0000
0.0000
0.0000
0.0000
0.0000
0.0000
0.0000
63.0739
63.0739
63.4753
64.4247
65.9428
67.7687
69.3588
70.3664
70.7262
70.5411
69.9683
69.1545
68.2132
67.2226
66.2323
65.2708
64.3529
63.4843
62.6653
61.8933
61.1643
60.4735
59.8161
59.1877
58.5842
58.0020
57.4378
56.8890
56.3531
55.8282
55.3126
54.8048
54.3036
53.8080
53.3171
52.8302
52.3467
51.8660
51.3878
50.9116
50.4372
49.9642
49.4926
49.0220
48.5523
48.0834
47.6152
47.1476
46.6804
46.2137
45.7473
45.2812
44.8154
44.3499
43.8845
43.4193
42.9542
42.4892
42.0244
41.5596
41.0949
40.6303
40.1657
39.7011
39.2366
38.7721
38.3076
37.8431
37.3786
36.9141
36.4496
35.9850
35.5204
35.0558
34.5912
34.1265
33.6617
33.1969
32.7321
32.2671
31.8021
31.3370
30.8718
30.4066
29.9412
29.4758
29.0102
28.5446
28.0789
27.6131
27.1472
26.6813
26.2153
25.7492
25.2832
24.8172
24.3512
23.8853
23.4195
22.9540
22.4886
22.0235
21.5588
21.0945
20.6308
20.1677
19.7053
19.2438
18.7833
18.3240
17.8659
17.4092
16.9542
16.5010
16.0499
15.6009
15.1544
14.7106
14.2697
13.8320
13.3977
12.9671
12.5405
12.1181
11.7003
11.2874
10.8796
10.4772
10.0805
9.6898
9.3055
8.9277
8.5568
8.1930
7.8366
7.4879
7.1470
6.8142
6.4898
6.1738
5.8664
5.5679
5.2783
4.9978
4.7264
4.4643
4.2114
3.9678
3.7334
3.5083
3.2925
3.0858
2.8882
2.6995
2.5197
2.3486
2.1860
2.0318
1.8857
1.7476
1.6173
1.4945
1.3789
1.2704
1.1686
1.0734
0.9844
0.9014
0.8241
0.7523
0.6856
0.6239
0.5668
0.5141
0.4655
0.4209
0.3799
0.3423
0.3080
0.2766
0.2481
0.2221
0.1984
0.1770
0.1577
0.1402
0.1245
0.1103
0.0976
0.0861
0.0759
0.0668
0.0587
0.0515
0.0451
0.0394
0.0344
0.0299
0.0260
0.0226
0.0195
0.0169
0.0146
0.0126
0.0108
0.0093
0.0080
0.0068
0.0058
0.0049
0.0042
0.0036
0.0030
0.0026
0.0022
0.0018
0.0015
0.0013
0.0011
0.0009
0.0008
0.0006
0.0005
0.0004
0.0004
0.0003
0.0002
0.0002
0.0002
0.0001
0.0001
0.0001
0.0001
0.0001
0.0001
0.0000
0.0000
0.0000
0.0000
0.0000
0.0000
0.0000
0.0000
0.0000
0.0000
0.0000
0.0000
0.0000
0.0000
0.0000
0.0000
0.0000
0.0000
0.0000
0.0000
0.0000
0.0000
0.0000
0.0000
0.0000
0.0000
0.0000
0.0000
0.0000
0.0000
0.0000
0.0000
0.0000
0.0000
0.0000
0.0000
0.0000
0.0000
0.0000
0.0000
0.0000
0.0000
0.0000
0.0000
0.0000
0.0000
0.0000
0.0000
0.0000
0.0000
0.0000
0.0000
0.0000
0.0000
0.0000
0.0000
0.0000
0.0000
0.0000
0.0000
0.0000
0.0000
0.0000
0.0000
0.0000
0.0000
67.8273
67.8273
68.7466
70.9690
74.5996
78.8788
81.9552
83.2087
82.9073
81.5770
79.6874
77.5687
75.4243
73.3671
71.4515
69.6974
68.1053
66.6655
65.3635
64.1835
63.1097
62.1275
61.2238
60.3870
59.6069
58.8750
58.1838
57.5271
56.8995
56.2965
55.7143
55.1497
54.6000
54.0629
53.5366
53.0193
52.5097
52.0067
51.5093
51.0166
50.5280
50.0429
49.5607
49.0810
48.6035
48.1278
47.6538
47.1811
46.7095
46.2390
45.7694
45.3004
44.8322
44.3644
43.8972
43.4304
42.9639
42.4977
42.0318
41.5661
41.1005
40.6352
40.1700
39.7049
39.2399
38.7750
38.3101
37.8453
37.3805
36.9158
36.4511
35.9863
35.5216
35.0568
34.5921
34.1273
33.6624
33.1975
32.7326
32.2676
31.8025
31.3374
30.8721
30.4068
29.9414
29.4760
29.0104
28.5448
28.0790
27.6132
27.1473
26.6814
26.2154
25.7493
25.2833
24.8172
24.3513
23.8854
23.4196
22.9540
22.4886
22.0235
21.5588
21.0945
20.6308
20.1677
19.7053
19.2438
18.7833
18.3240
17.8659
17.4092
16.9542
16.5010
16.0499
15.6009
15.1544
14.7106
14.2697
13.8320
13.3977
12.9671
12.5405
12.1181
11.7003
11.2874
10.8796
10.4772
10.0805
9.6898
9.3055
8.9277
8.5568
8.1930
7.8366
7.4879
7.1470
6.8142
6.4898
6.1738
5.8664
5.5679
5.2783
4.9978
4.7264
4.4643
4.2114
3.9678
3.7334
3.5083
3.2925
3.0858
2.8882
2.6995
2.5197
2.3486
2.1860
2.0318
1.8857
1.7476
1.6173
1.4945
1.3789
1.2704
1.1686
1.0734
0.9844
0.9014
0.8241
0.7523
0.6856
0.6239
0.5668
0.5141
0.4655
0.4209
0.3799
0.3423
0.3080
0.2766
0.2481
0.2221
0.1984
0.1770
0.1577
0.1402
0.1245
0.1103
0.0976
0.0861
0.0759
0.0668
0.0587
0.0515
0.0451
0.0394
0.0344
0.0299
0.0260
0.0226
0.0195
0.0169
0.0146
0.0126
0.0108
0.0093
0.0080
0.0068
0.0058
0.0049
0.0042
0.0036
0.0030
0.0026
0.0022
0.0018
0.0015
0.0013
0.0011
0.0009
0.0008
0.0006
0.0005
0.0004
0.0004
0.0003
0.0002
0.0002
0.0002
0.0001
0.0001
0.0001
0.0001
0.0001
0.0001
0.0000
0.0000
0.0000
0.0000
0.0000
0.0000
0.0000
0.0000
0.0000
0.0000
0.0000
0.0000
0.0000
0.0000
0.0000
0.0000
0.0000
0.0000
0.0000
0.0000
0.0000
0.0000
0.0000
0.0000
0.0000
0.0000
0.0000
0.0000
0.0000
0.0000
0.0000
0.0000
0.0000
0.0000
0.0000
0.0000
0.0000
0.0000
0.0000
0.0000
0.0000
0.0000
0.0000
0.0000
0.0000
0.0000
0.0000
0.0000
0.0000
0.0000
0.0000
0.0000
0.0000
0.0000
0.0000
0.0000
0.0000
0.0000
0.0000
0.0000
0.0000
0.0000
0.0000
0.0000
0.0000
0.0000
75.3505
75.3505
77.4204
82.6324
91.6245
102.4019
107.7852
107.9014
104.8457
100.3632
95.5001
90.7881
86.4593
82.5881
79.1732
76.1800
73.5613
71.2683
69.2552
67.4804
65.9079
64.5063
63.2492
62.1139
61.0813
60.1353
59.2624
58.4511
57.6919
56.9768
56.2989
55.6525
55.0329
54.4359
53.8582
53.2969
52.7494
52.2139
51.6885
51.1717
50.6624
50.1593
49.6616
49.1686
48.6796
48.1939
47.7112
47.2310
46.7530
46.2769
45.8023
45.3292
44.8572
44.3863
43.9163
43.4470
42.9784
42.5104
42.0429
41.5758
41.1090
40.6426
40.1765
39.7106
39.2449
38.7793
38.3139
37.8487
37.3835
36.9184
36.4533
35.9883
35.5233
35.0584
34.5934
34.1285
33.6635
33.1984
32.7334
32.2683
31.8031
31.3379
30.8726
30.4073
29.9418
29.4763
29.0107
28.5450
28.0792
27.6134
27.1475
26.6815
26.2155
25.7494
25.2834
24.8173
24.3513
23.8854
23.4197
22.9540
22.4887
22.0236
21.5589
21.0946
20.6308
20.1677
19.7054
19.2439
18.7834
18.3240
17.8659
17.4093
16.9542
16.5011
16.0499
15.6009
15.1544
14.7106
14.2697
13.8320
13.3977
12.9671
12.5405
12.1181
11.7003
11.2874
10.8796
10.4772
10.0805
9.6898
9.3055
8.9277
8.5568
8.1930
7.8366
7.4879
7.1470
6.8142
6.4898
6.1738
5.8664
5.5679
5.2783
4.9978
4.7264
4.4643
4.2114
3.9678
3.7334
3.5083
3.2925
3.0858
2.8882
2.6995
2.5197
2.3486
2.1860
2.0318
1.8857
1.7476
1.6173
1.4945
1.3789
1.2704
1.1686
1.0734
0.9844
0.9014
0.8241
0.7523
0.6856
0.6239
0.5668
0.5141
0.4655
0.4209
0.3799
0.3423
0.3080
0.2766
0.2481
0.2221
0.1984
0.1770
0.1577
0.1402
0.1245
0.1103
0.0976
0.0861
0.0759
0.0668
0.0587
0.0515
0.0451
0.0394
0.0344
0.0299
0.0260
0.0226
0.0195
0.0169
0.0146
0.0126
0.0108
0.0093
0.0080
0.0068
0.0058
0.0049
0.0042
0.0036
0.0030
0.0026
0.0022
0.0018
0.0015
0.0013
0.0011
0.0009
0.0008
0.0006
0.0005
0.0004
0.0004
0.0003
0.0002
0.0002
0.0002
0.0001
0.0001
0.0001
0.0001
0.0001
0.0001
0.0000
0.0000
0.0000
0.0000
0.0000
0.0000
0.0000
0.0000
0.0000
0.0000
0.0000
0.0000
0.0000
0.0000
0.0000
0.0000
0.0000
0.0000
0.0000
0.0000
0.0000
0.0000
0.0000
0.0000
0.0000
0.0000
0.0000
0.0000
0.0000
0.0000
0.0000
0.0000
0.0000
0.0000
0.0000
0.0000
0.0000
0.0000
0.0000
0.0000
0.0000
0.0000
0.0000
0.0000
0.0000
0.0000
0.0000
0.0000
0.0000
0.0000
0.0000
0.0000
0.0000
0.0000
0.0000
0.0000
0.0000
0.0000
0.0000
0.0000
0.0000
0.0000
0.0000
0.0000
0.0000
0.0000
86.4517
86.4517
90.8774
102.7763
125.5892
155.9011
161.2816
153.6368
141.8912
129.9725
119.2321
109.9685
102.1065
95.4637
89.8471
85.0834
81.0258
77.5530
74.5649
71.9797
69.7298
67.7600
66.0242
64.4845
63.1095
61.8728
60.7527
59.7309
58.7920
57.9234
57.1141
56.3552
55.6391
54.9594
54.3105
53.6880
53.0879
52.5070
51.9424
51.3919
50.8533
50.3251
49.8056
49.2938
48.7884
48.2886
47.7936
47.3028
46.8155
46.3314
45.8498
45.3706
44.8934
44.4179
43.9439
43.4711
42.9995
42.5288
42.0590
41.5899
41.1214
40.6534
40.1860
39.7189
39.2522
38.7857
38.3195
37.8536
37.3878
36.9222
36.4566
35.9912
35.5259
35.0606
34.5954
34.1302
33.6650
33.1998
32.7346
32.2693
31.8040
31.3387
30.8733
30.4079
29.9424
29.4768
29.0111
28.5454
28.0796
27.6137
27.1477
26.6817
26.2157
25.7496
25.2835
24.8175
24.3515
23.8855
23.4197
22.9541
22.4887
22.0236
21.5589
21.0946
20.6309
20.1678
19.7054
19.2439
18.7834
18.3240
17.8659
17.4093
16.9543
16.5011
16.0499
15.6009
15.1544
14.7106
14.2697
13.8320
13.3977
12.9671
12.5405
12.1181
11.7003
11.2874
10.8796
10.4772
10.0805
9.6898
9.3055
8.9277
8.5568
8.1930
7.8366
7.4879
7.1470
6.8142
6.4898
6.1738
5.8664
5.5679
5.2783
4.9978
4.7264
4.4643
4.2114
3.9678
3.7334
3.5083
3.2925
3.0858
2.8882
2.6995
2.5197
2.3486
2.1860
2.0318
1.8857
1.7476
1.6173
1.4945
1.3789
1.2704
1.1686
1.0734
0.9844
0.9014
0.8241
0.7523
0.6856
0.6239
0.5668
0.5141
0.4655
0.4209
0.3799
0.3423
0.3080
0.2766
0.2481
0.2221
0.1984
0.1770
0.1577
0.1402
0.1245
0.1103
0.0976
0.0861
0.0759
0.0668
0.0587
0.0515
0.0451
0.0394
0.0344
0.0299
0.0260
0.0226
0.0195
0.0169
0.0146
0.0126
0.0108
0.0093
0.0080
0.0068
0.0058
0.0049
0.0042
0.0036
0.0030
0.0026
0.0022
0.0018
0.0015
0.0013
0.0011
0.0009
0.0008
0.0006
0.0005
0.0004
0.0004
0.0003
0.0002
0.0002
0.0002
0.0001
0.0001
0.0001
0.0001
0.0001
0.0001
0.0000
0.0000
0.0000
0.0000
0.0000
0.0000
0.0000
0.0000
0.0000
0.0000
0.0000
0.0000
0.0000
0.0000
0.0000
0.0000
0.0000
0.0000
0.0000
0.0000
0.0000
0.0000
0.0000
0.0000
0.0000
0.0000
0.0000
0.0000
0.0000
0.0000
0.0000
0.0000
0.0000
0.0000
0.0000
0.0000
0.0000
0.0000