# vtk DataFile Version 5.0
Example 3D regular grid VTK file.
ASCII
DATASET UNSTRUCTURED_GRID
POINTS 90601 float
0 0 0
0 10 0
0 20 0
0 30 0
0 40 0
0 50 0
0 60 0
0 70 0
0 80 0
0 90 0
0 100 0
0 110 0
0 120 0
0 130 0
0 140 0
0 150 0
0 160 0
0 170 0
0 180 0
0 190 0
0 200 0
0 210 0
0 220 0
0 230 0
0 240 0
0 250 0
0 260 0
0 270 0
0 280 0
0 290 0
0 300 0
0 310 0
0 320 0
0 330 0
0 340 0
0 350 0
0 360 0
0 370 0
0 380 0
0 390 0
0 400 0
0 410 0
0 420 0
0 430 0
0 440 0
0 450 0
0 460 0
0 470 0
0 480 0
0 490 0
0 500 0
0 510 0
0 520 0
0 530 0
0 540 0
0 550 0
0 560 0
0 570 0
0 580 0
0 590 0
0 600 0
0 610 0
0 620 0
0 630 0
0 640 0
0 650 0
0 660 0
0 670 0
0 680 0
0 690 0
0 700 0
0 710 0
0 720 0
0 730 0
0 740 0
0 750 0
0 760 0
0 770 0
0 780 0
0 790 0
0 800 0
0 810 0
0 820 0
0 830 0
0 840 0
0 850 0
0 860 0
0 870 0
0 880 0
0 890 0
0 900 0
0 910 0
0 920 0
0 930 0
0 940 0
0 950 0
0 960 0
0 970 0
0 980 0
0 990 0
0 1000 0
0 1010 0
0 1020 0
0 1030 0
0 1040 0
0 1050 0
0 1060 0
0 1070 0
0 1080 0
0 1090 0
0 1100 0
0 1110 0
0 1120 0
0 1130 0
0 1140 0
0 1150 0
0 1160 0
0 1170 0
0 1180 0
0 1190 0
0 1200 0
0 1210 0
0 1220 0
0 1230 0
0 1240 0
0 1250 0
0 1260 0
0 1270 0
0 1280 0
0 1290 0
0 1300 0
0 1310 0
0 1320 0
0 1330 0
0 1340 0
0 1350 0
0 1360 0
0 1370 0
0 1380 0
0 1390 0
0 1400 0
0 1410 0
0 1420 0
0 1430 0
0 1440 0
0 1450 0
0 1460 0
0 1470 0
0 1480 0
0 1490 0
0 1500 0
0 1510 0
0 1520 0
0 1530 0
0 1540 0
0 1550 0
0 1560 0
0 1570 0
0 1580 0
0 1590 0
0 1600 0
0 1610 0
0 1620 0
0 1630 0
0 1640 0
0 1650 0
0 1660 0
0 1670 0
0 1680 0
0 1690 0
0 1700 0
0 1710 0
0 1720 0
0 1730 0
0 1740 0
0 1750 0
0 1760 0
0 1770 0
0 1780 0
0 1790 0
0 1800 0
0 1810 0
0 1820 0
0 1830 0
0 1840 0
0 1850 0
0 1860 0
0 1870 0
0 1880 0
0 1890 0
0 1900 0
0 1910 0
0 1920 0
0 1930 0
0 1940 0
0 1950 0
0 1960 0
0 1970 0
0 1980 0
0 1990 0
0 2000 0
0 2010 0
0 2020 0
0 2030 0
0 2040 0
0 2050 0
0 2060 0
0 2070 0
0 2080 0
0 2090 0
0 2100 0
0 2110 0
0 2120 0
0 2130 0
0 2140 0
0 2150 0
0 2160 0
0 2170 0
0 2180 0
0 2190 0
0 2200 0
0 2210 0
0 2220 0
0 2230 0
0 2240 0
0 2250 0
0 2260 0
0 2270 0
0 2280 0
0 2290 0
0 2300 0
0 2310 0
0 2320 0
0 2330 0
0 2340 0
0 2350 0
0 2360 0
0 2370 0
0 2380 0
0 2390 0
0 2400 0
0 2410 0
0 2420 0
0 2430 0
0 2440 0
0 2450 0
0 2460 0
0 2470 0
0 2480 0
0 2490 0
0 2500 0
0 2510 0
0 2520 0
0 2530 0
0 2540 0
0 2550 0
0 2560 0
0 2570 0
0 2580 0
0 2590 0
0 2600 0
0 2610 0
0 2620 0
0 2630 0
0 2640 0
0 2650 0
0 2660 0
0 2670 0
0 2680 0
0 2690 0
0 2700 0
0 2710 0
0 2720 0
0 2730 0
0 2740 0
0 2750 0
0 2760 0
0 2770 0
0 2780 0
0 2790 0
0 2800 0
0 2810 0
0 2820 0
0 2830 0
0 2840 0
0 2850 0
0 2860 0
0 2870 0
0 2880 0
0 2890 0
0 2900 0
0 2910 0
0 2920 0
0 2930 0
0 2940 0
0 2950 0
0 2960 0
0 2970 0
0 2980 0
0 2990 0
0 3000 0
10 0 0
10 10 0
10 20 0
10 30 0
10 40 0
10 50 0
10 60 0
10 70 0
10 80 0
10 90 0
10 100 0
10 110 0
10 120 0
10 130 0
10 140 0
10 150 0
10 160 0
10 170 0
10 180 0
10 190 0
10 200 0
10 210 0
10 220 0
10 230 0
10 240 0
10 250 0
10 260 0
10 270 0
10 280 0
10 290 0
10 300 0
10 310 0
10 320 0
10 330 0
10 340 0
10 350 0
10 360 0
10 370 0
10 380 0
10 390 0
10 400 0
10 410 0
10 420 0
10 430 0
10 440 0
10 450 0
10 460 0
10 470 0
10 480 0
10 490 0
10 500 0
10 510 0
10 520 0
10 530 0
10 540 0
10 550 0
10 560 0
10 570 0
10 580 0
10 590 0
10 600 0
10 610 0
10 620 0
10 630 0
10 640 0
10 650 0
10 660 0
10 670 0
10 680 0
10 690 0
10 700 0
10 710 0
10 720 0
10 730 0
10 740 0
10 750 0
10 760 0
10 770 0
10 780 0
10 790 0
10 800 0
10 810 0
10 820 0
10 830 0
10 840 0
10 850 0
10 860 0
10 870 0
10 880 0
10 890 0
10 900 0
10 910 0
10 920 0
10 930 0
10 940 0
10 950 0
10 960 0
10 970 0
10 980 0
10 990 0
10 1000 0
10 1010 0
10 1020 0
10 1030 0
10 1040 0
10 1050 0
10 1060 0
10 1070 0
10 1080 0
10 1090 0
10 1100 0
10 1110 0
10 1120 0
10 1130 0
10 1140 0
10 1150 0
10 1160 0
10 1170 0
10 1180 0
10 1190 0
10 1200 0
10 1210 0
10 1220 0
10 1230 0
10 1240 0
10 1250 0
10 1260 0
10 1270 0
10 1280 0
10 1290 0
10 1300 0
10 1310 0
10 1320 0
10 1330 0
10 1340 0
10 1350 0
10 1360 0
10 1370 0
10 1380 0
10 1390 0
10 1400 0
10 1410 0
10 1420 0
10 1430 0
10 1440 0
10 1450 0
10 1460 0
10 1470 0
10 1480 0
10 1490 0
10 1500 0
10 1510 0
10 1520 0
10 1530 0
10 1540 0
10 1550 0
10 1560 0
10 1570 0
10 1580 0
10 1590 0
10 1600 0
10 1610 0
10 1620 0
10 1630 0
10 1640 0
10 1650 0
10 1660 0
10 1670 0
10 1680 0
10 1690 0
10 1700 0
10 1710 0
10 1720 0
10 1730 0
10 1740 0
10 1750 0
10 1760 0
10 1770 0
10 1780 0
10 1790 0
10 1800 0
10 1810 0
10 1820 0
10 1830 0
10 1840 0
10 1850 0
10 1860 0
10 1870 0
10 1880 0
10 1890 0
10 1900 0
10 1910 0
10 1920 0
10 1930 0
10 1940 0
10 1950 0
10 1960 0
10 1970 0
10 1980 0
10 1990 0
10 2000 0
10 2010 0
10 2020 0
10 2030 0
10 2040 0
10 2050 0
10 2060 0
10 2070 0
10 2080 0
10 2090 0
10 2100 0
10 2110 0
10 2120 0
10 2130 0
10 2140 0
10 2150 0
10 2160 0
10 2170 0
10 2180 0
10 2190 0
10 2200 0
10 2210 0
10 2220 0
10 2230 0
10 2240 0
10 2250 0
10 2260 0
10 2270 0
10 2280 0
10 2290 0
10 2300 0
10 2310 0
10 2320 0
10 2330 0
10 2340 0
10 2350 0
10 2360 0
10 2370 0
10 2380 0
10 2390 0
10 2400 0
10 2410 0
10 2420 0
10 2430 0
10 2440 0
10 2450 0
10 2460 0
10 2470 0
10 2480 0
10 2490 0
10 2500 0
10 2510 0
10 2520 0
10 2530 0
10 2540 0
10 2550 0
10 2560 0
10 2570 0
10 2580 0
10 2590 0
10 2600 0
10 2610 0
10 2620 0
10 2630 0
10 2640 0
10 2650 0
10 2660 0
10 2670 0
10 2680 0
10 2690 0
10 2700 0
10 2710 0
10 2720 0
10 2730 0
10 2740 0
10 2750 0
10 2760 0
10 2770 0
10 2780 0
10 2790 0
10 2800 0
10 2810 0
10 2820 0
10 2830 0
10 2840 0
10 2850 0
10 2860 0
10 2870 0
10 2880 0
10 2890 0
10 2900 0
10 2910 0
10 2920 0
10 2930 0
10 2940 0
10 2950 0
10 2960 0
10 2970 0
10 2980 0
10 2990 0
10 3000 0
20 0 0
20 10 0
20 20 0
20 30 0
20 40 0
20 50 0
20 60 0
20 70 0
20 80 0
20 90 0
20 100 0
20 110 0
20 120 0
20 130 0
20 140 0
20 150 0
20 160 0
20 170 0
20 180 0
20 190 0
20 200 0
20 210 0
20 220 0
20 230 0
20 240 0
20 250 0
20 260 0
20 270 0
20 280 0
20 290 0
20 300 0
20 310 0
20 320 0
20 330 0
20 340 0
20 350 0
20 360 0
20 370 0
20 380 0
20 390 0
20 400 0
20 410 0
20 420 0
20 430 0
20 440 0
20 450 0
20 460 0
20 470 0
20 480 0
20 490 0
20 500 0
20 510 0
20 520 0
20 530 0
20 540 0
20 550 0
20 560 0
20 570 0
20 580 0
20 590 0
20 600 0
20 610 0
20 620 0
20 630 0
20 640 0
20 650 0
20 660 0
20 670 0
20 680 0
20 690 0
20 700 0
20 710 0
20 720 0
20 730 0
20 740 0
20 750 0
20 760 0
20 770 0
20 780 0
20 790 0
20 800 0
20 810 0
20 820 0
20 830 0
20 840 0
20 850 0
20 860 0
20 870 0
20 880 0
20 890 0
20 900 0
20 910 0
20 920 0
20 930 0
20 940 0
20 950 0
20 960 0
20 970 0
20 980 0
20 990 0
20 1000 0
20 1010 0
20 1020 0
20 1030 0
20 1040 0
20 1050 0
20 1060 0
20 1070 0
20 1080 0
20 1090 0
20 1100 0
20 1110 0
20 1120 0
20 1130 0
20 1140 0
20 1150 0
20 1160 0
20 1170 0
20 1180 0
20 1190 0
20 1200 0
20 1210 0
20 1220 0
20 1230 0
20 1240 0
20 1250 0
20 1260 0
20 1270 0
20 1280 0
20 1290 0
20 1300 0
20 1310 0
20 1320 0
20 1330 0
20 1340 0
20 1350 0
20 1360 0
20 1370 0
20 1380 0
20 1390 0
20 1400 0
20 1410 0
20 1420 0
20 1430 0
20 1440 0
20 1450 0
20 1460 0
20 1470 0
20 1480 0
20 1490 0
20 1500 0
20 1510 0
20 1520 0
20 1530 0
20 1540 0
20 1550 0
20 1560 0
20 1570 0
20 1580 0
20 1590 0
20 1600 0
20 1610 0
20 1620 0
20 1630 0
20 1640 0
20 1650 0
20 1660 0
20 1670 0
20 1680 0
20 1690 0
20 1700 0
20 1710 0
20 1720 0
20 1730 0
20 1740 0
20 1750 0
20 1760 0
20 1770 0
20 1780 0
20 1790 0
20 1800 0
20 1810 0
20 1820 0
20 1830 0
20 1840 0
20 1850 0
20 1860 0
20 1870 0
20 1880 0
20 1890 0
20 1900 0
20 1910 0
20 1920 0
20 1930 0
20 1940 0
20 1950 0
20 1960 0
20 1970 0
20 1980 0
20 1990 0
20 2000 0
20 2010 0
20 2020 0
20 2030 0
20 2040 0
20 2050 0
20 2060 0
20 2070 0
20 2080 0
20 2090 0
20 2100 0
20 2110 0
20 2120 0
20 2130 0
20 2140 0
20 2150 0
20 2160 0
20 2170 0
20 2180 0
20 2190 0
20 2200 0
20 2210 0
20 2220 0
20 2230 0
20 2240 0
20 2250 0
20 2260 0
20 2270 0
20 2280 0
20 2290 0
20 2300 0
20 2310 0
20 2320 0
20 2330 0
20 2340 0
20 2350 0
20 2360 0
20 2370 0
20 2380 0
20 2390 0
20 2400 0
20 2410 0
20 2420 0
20 2430 0
20 2440 0
20 2450 0
20 2460 0
20 2470 0
20 2480 0
20 2490 0
20 2500 0
20 2510 0
20 2520 0
20 2530 0
20 2540 0
20 2550 0
20 2560 0
20 2570 0
20 2580 0
20 2590 0
20 2600 0
20 2610 0
20 2620 0
20 2630 0
20 2640 0
20 2650 0
20 2660 0
20 2670 0
20 2680 0
20 2690 0
20 2700 0
20 2710 0
20 2720 0
20 2730 0
20 2740 0
20 2750 0
20 2760 0
20 2770 0
20 2780 0
20 2790 0
20 2800 0
20 2810 0
20 2820 0
20 2830 0
20 2840 0
20 2850 0
20 2860 0
20 2870 0
20 2880 0
20 2890 0
20 2900 0
20 2910 0
20 2920 0
20 2930 0
20 2940 0
20 2950 0
20 2960 0
20 2970 0
20 2980 0
20 2990 0
20 3000 0
30 0 0
30 10 0
30 20 0
30 30 0
30 40 0
30 50 0
30 60 0
30 70 0
30 80 0
30 90 0
30 100 0
30 110 0
30 120 0
30 130 0
30 140 0
30 150 0
30 160 0
30 170 0
30 180 0
30 190 0
30 200 0
30 210 0
30 220 0
30 230 0
30 240 0
30 250 0
30 260 0
30 270 0
30 280 0
30 290 0
30 300 0
30 310 0
30 320 0
30 330 0
30 340 0
30 350 0
30 360 0
30 370 0
30 380 0
30 390 0
30 400 0
30 410 0
30 420 0
30 430 0
30 440 0
30 450 0
30 460 0
30 470 0
30 480 0
30 490 0
30 500 0
30 510 0
30 520 0
30 530 0
30 540 0
30 550 0
30 560 0
30 570 0
30 580 0
30 590 0
30 600 0
30 610 0
30 620 0
30 630 0
30 640 0
30 650 0
30 660 0
30 670 0
30 680 0
30 690 0
30 700 0
30 710 0
30 720 0
30 730 0
30 740 0
30 750 0
30 760 0
30 770 0
30 780 0
30 790 0
30 800 0
30 810 0
30 820 0
30 830 0
30 840 0
30 850 0
30 860 0
30 870 0
30 880 0
30 890 0
30 900 0
30 910 0
30 920 0
30 930 0
30 940 0
30 950 0
30 960 0
30 970 0
30 980 0
30 990 0
30 1000 0
30 1010 0
30 1020 0
30 1030 0
30 1040 0
30 1050 0
30 1060 0
30 1070 0
30 1080 0
30 1090 0
30 1100 0
30 1110 0
30 1120 0
30 1130 0
30 1140 0
30 1150 0
30 1160 0
30 1170 0
30 1180 0
30 1190 0
30 1200 0
30 1210 0
30 1220 0
30 1230 0
30 1240 0
30 1250 0
30 1260 0
30 1270 0
30 1280 0
30 1290 0
30 1300 0
30 1310 0
30 1320 0
30 1330 0
30 1340 0
30 1350 0
30 1360 0
30 1370 0
30 1380 0
30 1390 0
30 1400 0
30 1410 0
30 1420 0
30 1430 0
30 1440 0
30 1450 0
30 1460 0
30 1470 0
30 1480 0
30 1490 0
30 1500 0
30 1510 0
30 1520 0
30 1530 0
30 1540 0
30 1550 0
30 1560 0
30 1570 0
30 1580 0
30 1590 0
[...]
POINT_DATA 90601
SCALARS P float
LOOKUP_TABLE default
62.3216
62.3216
62.3585
62.4466
62.5946
62.8013
63.0544
63.3331
63.6128
63.8708
64.0885
64.2538
64.3596
64.4039
64.3879
64.3152
64.1905
64.0191
63.8065
63.5579
63.2780
62.9712
62.6414
62.2918
61.9254
61.5446
61.1517
60.7484
60.3362
59.9165
59.4904
59.0589
58.6227
58.1826
57.7391
57.2927
56.8438
56.3928
55.9400
55.4857
55.0300
54.5731
54.1153
53.6567
53.1973
52.7372
52.2767
51.8156
51.3542
50.8924
50.4303
49.9680
49.5054
49.0426
48.5797
48.1166
47.6533
47.1900
46.7265
46.2630
45.7994
45.3357
44.8720
44.4082
43.9443
43.4805
43.0165
42.5526
42.0886
41.6245
41.1605
40.6964
40.2323
39.7681
39.3039
38.8397
38.3754
37.9111
37.4468
36.9824
36.5180
36.0536
35.5890
35.1245
34.6599
34.1952
33.7304
33.2656
32.8008
32.3358
31.8708
31.4057
30.9406
30.4753
30.0100
29.5447
29.0792
28.6138
28.1482
27.6827
27.2171
26.7515
26.2859
25.8204
25.3549
24.8895
24.4243
23.9593
23.4945
23.0300
22.5659
22.1022
21.6390
21.1764
20.7146
20.2535
19.7933
19.3342
18.8762
18.4196
17.9644
17.5109
17.0591
16.6094
16.1618
15.7166
15.2741
14.8343
14.3976
13.9642
13.5343
13.1082
12.6862
12.2684
11.8552
11.4469
11.0436
10.6457
10.2535
9.8672
9.4870
9.1133
8.7462
8.3860
8.0330
7.6874
7.3493
7.0191
6.6968
6.3826
6.0768
5.7794
5.4905
5.2103
4.9389
4.6762
4.4224
4.1775
3.9415
3.7143
3.4960
3.2865
3.0857
2.8935
2.7099
2.5346
2.3676
2.2087
2.0578
1.9146
1.7790
1.6508
1.5297
1.4155
1.3080
1.2070
1.1123
1.0235
0.9404
0.8629
0.7906
0.7233
0.6607
0.6027
0.5490
0.4993
0.4534
0.4111
0.3722
0.3365
0.3037
0.2737
0.2463
0.2213
0.1985
0.1778
0.1590
0.1419
0.1265
0.1126
0.1000
0.0887
0.0786
0.0695
0.0614
0.0541
0.0476
0.0418
0.0367
0.0321
0.0281
0.0245
0.0214
0.0186
0.0161
0.0140
0.0121
0.0105
0.0090
0.0078
0.0067
0.0057
0.0049
0.0042
0.0036
0.0031
0.0026
0.0022
0.0019
0.0016
0.0013
0.0011
0.0010
0.0008
0.0007
0.0006
0.0005
0.0004
0.0003
0.0003
0.0002
0.0002
0.0002
0.0001
0.0001
0.0001
0.0001
0.0001
0.0000
0.0000
0.0000
0.0000
0.0000
0.0000
0.0000
0.0000
0.0000
0.0000
0.0000
0.0000
0.0000
0.0000
0.0000
0.0000
0.0000
0.0000
0.0000
0.0000
0.0000
0.0000
0.0000
0.0000
0.0000
0.0000
0.0000
0.0000
0.0000
0.0000
0.0000
0.0000
0.0000
0.0000
0.0000
0.0000
0.0000
0.0000
0.0000
0.0000
0.0000
0.0000
0.0000
0.0000
0.0000
0.0000
0.0000
0.0000
0.0000
0.0000
0.0000
0.0000
0.0000
62.3216
62.3216
62.3585
62.4466
62.5946
62.8013
63.0544
63.3331
63.6128
63.8708
64.0885
64.2538
64.3596
64.4039
64.3879
64.3152
64.1905
64.0191
63.8065
63.5579
63.2780
62.9712
62.6414
62.2918
61.9254
61.5446
61.1517
60.7484
60.3362
59.9165
59.4904
59.0589
58.6227
58.1826
57.7391
57.2927
56.8438
56.3928
55.9400
55.4857
55.0300
54.5731
54.1153
53.6567
53.1973
52.7372
52.2767
51.8156
51.3542
50.8924
50.4303
49.9680
49.5054
49.0426
48.5797
48.1166
47.6533
47.1900
46.7265
46.2630
45.7994
45.3357
44.8720
44.4082
43.9443
43.4805
43.0165
42.5526
42.0886
41.6245
41.1605
40.6964
40.2323
39.7681
39.3039
38.8397
38.3754
37.9111
37.4468
36.9824
36.5180
36.0536
35.5890
35.1245
34.6599
34.1952
33.7304
33.2656
32.8008
32.3358
31.8708
31.4057
30.9406
30.4753
30.0100
29.5447
29.0792
28.6138
28.1482
27.6827
27.2171
26.7515
26.2859
25.8204
25.3549
24.8895
24.4243
23.9593
23.4945
23.0300
22.5659
22.1022
21.6390
21.1764
20.7146
20.2535
19.7933
19.3342
18.8762
18.4196
17.9644
17.5109
17.0591
16.6094
16.1618
15.7166
15.2741
14.8343
14.3976
13.9642
13.5343
13.1082
12.6862
12.2684
11.8552
11.4469
11.0436
10.6457
10.2535
9.8672
9.4870
9.1133
8.7462
8.3860
8.0330
7.6874
7.3493
7.0191
6.6968
6.3826
6.0768
5.7794
5.4905
5.2103
4.9389
4.6762
4.4224
4.1775
3.9415
3.7143
3.4960
3.2865
3.0857
2.8935
2.7099
2.5346
2.3676
2.2087
2.0578
1.9146
1.7790
1.6508
1.5297
1.4155
1.3080
1.2070
1.1123
1.0235
0.9404
0.8629
0.7906
0.7233
0.6607
0.6027
0.5490
0.4993
0.4534
0.4111
0.3722
0.3365
0.3037
0.2737
0.2463
0.2213
0.1985
0.1778
0.1590
0.1419
0.1265
0.1126
0.1000
0.0887
0.0786
0.0695
0.0614
0.0541
0.0476
0.0418
0.0367
0.0321
0.0281
0.0245
0.0214
0.0186
0.0161
0.0140
0.0121
0.0105
0.0090
0.0078
0.0067
0.0057
0.0049
0.0042
0.0036
0.0031
0.0026
0.0022
0.0019
0.0016
0.0013
0.0011
0.0010
0.0008
0.0007
0.0006
0.0005
0.0004
0.0003
0.0003
0.0002
0.0002
0.0002
0.0001
0.0001
0.0001
0.0001
0.0001
0.0000
0.0000
0.0000
0.0000
0.0000
0.0000
0.0000
0.0000
0.0000
0.0000
0.0000
0.0000
0.0000
0.0000
0.0000
0.0000
0.0000
0.0000
0.0000
0.0000
0.0000
0.0000
0.0000
0.0000
0.0000
0.0000
0.0000
0.0000
0.0000
0.0000
0.0000
0.0000
0.0000
0.0000
0.0000
0.0000
0.0000
0.0000
0.0000
0.0000
0.0000
0.0000
0.0000
0.0000
0.0000
0.0000
0.0000
0.0000
0.0000
0.0000
0.0000
0.0000
0.0000
62.6129
62.6129
62.6616
62.7772
62.9686
63.2292
63.5361
63.8571
64.1606
64.4214
64.6233
64.7581
64.8241
64.8236
64.7615
64.6439
64.4771
64.2673
64.0204
63.7415
63.4352
63.1056
62.7560
62.3896
62.0088
61.6158
61.2124
60.8001
60.3804
59.9543
59.5228
59.0866
58.6464
58.2029
57.7565
57.3077
56.8567
56.4039
55.9496
55.4939
55.0371
54.5793
54.1206
53.6612
53.2012
52.7407
52.2796
51.8182
51.3564
50.8943
50.4320
49.9694
49.5067
49.0437
48.5806
48.1174
47.6540
47.1906
46.7271
46.2635
45.7998
45.3361
44.8723
44.4085
43.9446
43.4807
43.0167
42.5527
42.0887
41.6247
41.1606
40.6965
40.2323
39.7682
39.3040
38.8398
38.3755
37.9112
37.4468
36.9825
36.5181
36.0536
35.5891
35.1245
34.6599
34.1952
33.7305
33.2657
32.8008
32.3358
31.8708
31.4057
30.9406
30.4753
30.0100
29.5447
29.0792
28.6138
28.1482
27.6827
27.2171
26.7515
26.2859
25.8204
25.3549
24.8895
24.4243
23.9593
23.4945
23.0300
22.5659
22.1022
21.6390
21.1764
20.7146
20.2535
19.7933
19.3342
18.8762
18.4196
17.9644
17.5109
17.0591
16.6094
16.1618
15.7166
15.2741
14.8343
14.3976
13.9642
13.5343
13.1082
12.6862
12.2684
11.8552
11.4469
11.0436
10.6457
10.2535
9.8672
9.4870
9.1133
8.7462
8.3860
8.0330
7.6874
7.3493
7.0191
6.6968
6.3826
6.0768
5.7794
5.4905
5.2103
4.9389
4.6762
4.4224
4.1775
3.9415
3.7143
3.4960
3.2865
3.0857
2.8935
2.7099
2.5346
2.3676
2.2087
2.0578
1.9146
1.7790
1.6508
1.5297
1.4155
1.3080
1.2070
1.1123
1.0235
0.9404
0.8629
0.7906
0.7233
0.6607
0.6027
0.5490
0.4993
0.4534
0.4111
0.3722
0.3365
0.3037
0.2737
0.2463
0.2213
0.1985
0.1778
0.1590
0.1419
0.1265
0.1126
0.1000
0.0887
0.0786
0.0695
0.0614
0.0541
0.0476
0.0418
0.0367
0.0321
0.0281
0.0245
0.0214
0.0186
0.0161
0.0140
0.0121
0.0105
0.0090
0.0078
0.0067
0.0057
0.0049
0.0042
0.0036
0.0031
0.0026
0.0022
0.0019
0.0016
0.0013
0.0011
0.0010
0.0008
0.0007
0.0006
0.0005
0.0004
0.0003
0.0003
0.0002
0.0002
0.0002
0.0001
0.0001
0.0001
0.0001
0.0001
0.0000
0.0000
0.0000
0.0000
0.0000
0.0000
0.0000
0.0000
0.0000
0.0000
0.0000
0.0000
0.0000
0.0000
0.0000
0.0000
0.0000
0.0000
0.0000
0.0000
0.0000
0.0000
0.0000
0.0000
0.0000
0.0000
0.0000
0.0000
0.0000
0.0000
0.0000
0.0000
0.0000
0.0000
0.0000
0.0000
0.0000
0.0000
0.0000
0.0000
0.0000
0.0000
0.0000
0.0000
0.0000
0.0000
0.0000
0.0000
0.0000
0.0000
0.0000
0.0000
0.0000
63.3894
63.3894
63.4749
63.6757
64.0014
64.4259
64.8893
65.3245
65.6812
65.9331
66.0741
66.1115
66.0583
65.9296
65.7392
65.4993
65.2196
64.9081
64.5710
64.2132
63.8384
63.4498
63.0497
62.6400
62.2223
61.7978
61.3677
60.9327
60.4937
60.0511
59.6056
59.1575
58.7072
58.2551
57.8013
57.3461
56.8898
56.4324
55.9741
55.5150
55.0553
54.5950
54.1342
53.6730
53.2114
52.7495
52.2873
51.8248
51.3622
50.8993
50.4363
49.9732
49.5099
49.0466
48.5831
48.1195
47.6559
47.1922
46.7285
46.2647
45.8009
45.3370
44.8731
44.4092
43.9452
43.4812
43.0172
42.5532
42.0891
41.6250
41.1609
40.6967
40.2326
39.7684
39.3042
38.8399
38.3756
37.9113
37.4470
36.9826
36.5181
36.0537
35.5891
35.1246
34.6599
34.1952
33.7305
33.2657
32.8008
32.3359
31.8708
31.4058
30.9406
30.4754
30.0101
29.5447
29.0793
28.6138
28.1482
27.6827
27.2171
26.7515
26.2859
25.8204
25.3549
24.8895
24.4243
23.9593
23.4945
23.0300
22.5659
22.1022
21.6390
21.1764
20.7146
20.2535
19.7933
19.3342
18.8762
18.4196
17.9644
17.5109
17.0591
16.6094
16.1618
15.7166
15.2741
14.8343
14.3976
13.9642
13.5343
13.1082
12.6862
12.2684
11.8552
11.4469
11.0436
10.6457
10.2535
9.8672
9.4870
9.1133
8.7462
8.3860
8.0330
7.6874
7.3493
7.0191
6.6968
6.3826
6.0768
5.7794
5.4905
5.2103
4.9389
4.6762
4.4224
4.1775
3.9415
3.7143
3.4960
3.2865
3.0857
2.8935
2.7099
2.5346
2.3676
2.2087
2.0578
1.9146
1.7790
1.6508
1.5297
1.4155
1.3080
1.2070
1.1123
1.0235
0.9404
0.8629
0.7906
0.7233
0.6607
0.6027
0.5490
0.4993
0.4534
0.4111
0.3722
0.3365
0.3037
0.2737
0.2463
0.2213
0.1985
0.1778
0.1590
0.1419
0.1265
0.1126
0.1000
0.0887
0.0786
0.0695
0.0614
0.0541
0.0476
0.0418
0.0367
0.0321
0.0281
0.0245
0.0214
0.0186
0.0161
0.0140
0.0121
0.0105
0.0090
0.0078
0.0067
0.0057
0.0049
0.0042
0.0036
0.0031
0.0026
0.0022
0.0019
0.0016
0.0013
0.0011
0.0010
0.0008
0.0007
0.0006
0.0005
0.0004
0.0003
0.0003
0.0002
0.0002
0.0002
0.0001
0.0001
0.0001
0.0001
0.0001
0.0000
0.0000
0.0000
0.0000
0.0000
0.0000
0.0000
0.0000
0.0000
0.0000
0.0000
0.0000
0.0000
0.0000
0.0000
0.0000
0.0000
0.0000
0.0000
0.0000
0.0000
0.0000
0.0000
0.0000
0.0000
0.0000
0.0000
0.0000
0.0000
0.0000
0.0000
0.0000
0.0000
0.0000
0.0000
0.0000
0.0000
0.0000
0.0000
0.0000
0.0000
0.0000
0.0000
0.0000
0.0000
0.0000
0.0000
0.0000
0.0000
0.0000
0.0000
0.0000
0.0000
64.9579
64.9579
65.1363
65.5548
66.2239
67.0584
67.8833
68.5440
68.9623
69.1305
69.0824
68.8668
68.5315
68.1164
67.6513
67.1576
66.6493
66.1354
65.6215
65.1105
64.6039
64.1023
63.6058
63.1139
62.6263
62.1424
61.6617
61.1838
60.7082
60.2346
59.7627
59.2921
58.8226
58.3541
57.8864
57.4193
56.9527
56.4866
56.0208
55.5553
55.0901
54.6251
54.1602
53.6955
53.2309
52.7663
52.3019
51.8375
51.3732
50.9089
50.4446
49.9804
49.5162
49.0520
48.5879
48.1237
47.6595
47.1954
46.7313
46.2671
45.8030
45.3389
44.8747
44.4106
43.9464
43.4823
43.0181
42.5540
42.0898
41.6256
41.1614
40.6972
40.2330
39.7687
39.3045
38.8402
38.3759
37.9115
37.4471
36.9827
36.5183
36.0538
35.5892
35.1247
34.6600
34.1953
33.7306
33.2657
32.8009
32.3359
31.8709
31.4058
30.9406
30.4754
30.0101
29.5447
29.0793
28.6138
28.1482
27.6827
27.2171
26.7515
26.2859
25.8204
25.3549
24.8895
24.4243
23.9593
23.4945
23.0300
22.5659
22.1022
21.6390
21.1765
20.7146
20.2535
19.7933
19.3342
18.8762
18.4196
17.9644
17.5109
17.0591
16.6094
16.1618
15.7166
15.2741
14.8343
14.3976
13.9642
13.5343
13.1082
12.6862
12.2684
11.8552
11.4469
11.0436
10.6457
10.2535
9.8672
9.4870
9.1133
8.7462
8.3860
8.0330
7.6874
7.3493
7.0191
6.6968
6.3826
6.0768
5.7794
5.4905
5.2103
4.9389
4.6762
4.4224
4.1775
3.9415
3.7143
3.4960
3.2865
3.0857
2.8935
2.7099
2.5346
2.3676
2.2087
2.0578
1.9146
1.7790
1.6508
1.5297
1.4155
1.3080
1.2070
1.1123
1.0235
0.9404
0.8629
0.7906
0.7233
0.6607
0.6027
0.5490
0.4993
0.4534
0.4111
0.3722
0.3365
0.3037
0.2737
0.2463
0.2213
0.1985
0.1778
0.1590
0.1419
0.1265
0.1126
0.1000
0.0887
0.0786
0.0695
0.0614
0.0541
0.0476
0.0418
0.0367
0.0321
0.0281
0.0245
0.0214
0.0186
0.0161
0.0140
0.0121
0.0105
0.0090
0.0078
0.0067
0.0057
0.0049
0.0042
0.0036
0.0031
0.0026
0.0022
0.0019
0.0016
0.0013
0.0011
0.0010
0.0008
0.0007
0.0006
0.0005
0.0004
0.0003
0.0003
0.0002
0.0002
0.0002
0.0001
0.0001
0.0001
0.0001
0.0001
0.0000
0.0000
0.0000
0.0000
0.0000
0.0000
0.0000
0.0000
0.0000
0.0000
0.0000
0.0000
0.0000
0.0000
0.0000
0.0000
0.0000
0.0000
0.0000
0.0000
0.0000
0.0000
0.0000
0.0000
0.0000
0.0000
0.0000
0.0000
0.0000
0.0000
0.0000
0.0000
0.0000
0.0000
0.0000
0.0000
0.0000
0.0000
0.0000
0.0000
0.0000
0.0000
0.0000
0.0000
0.0000
0.0000
0.0000
0.0000
0.0000
0.0000
0.0000
0.0000
0.0000
67.7852
67.7852
68.1866
69.1360
70.6541
72.4800
74.0701
75.0777
75.4375
75.2524
74.6796
73.8658
72.9245
71.9339
70.9436
69.9821
69.0642
68.1956
67.3766
66.6047
65.8756
65.1848
64.5274
63.8990
63.2955
62.7133
62.1491
61.6003
61.0644
60.5395
60.0239
59.5161
59.0149
58.5193
58.0284
57.5415
57.0580
56.5773
56.0991
55.6229
55.1485
54.6755
54.2039
53.7333
53.2636
52.7947
52.3265
51.8589
51.3918
50.9250
50.4587
49.9926
49.5268
49.0613
48.5959
48.1307
47.6657
47.2008
46.7359
46.2712
45.8066
45.3420
44.8774
44.4130
43.9485
43.4841
43.0197
42.5554
42.0910
41.6267
41.1624
40.6980
40.2337
39.7694
39.3050
38.8407
38.3763
37.9119
37.4475
36.9830
36.5185
36.0540
35.5894
35.1248
34.6602
34.1955
33.7307
33.2658
32.8010
32.3360
31.8710
31.4059
30.9407
30.4754
30.0101
29.5447
29.0793
28.6138
28.1483
27.6827
27.2171
26.7515
26.2859
25.8204
25.3549
24.8896
24.4243
23.9593
23.4945
23.0300
22.5659
22.1022
21.6390
21.1765
20.7146
20.2535
19.7933
19.3342
18.8762
18.4196
17.9644
17.5109
17.0591
16.6094
16.1618
15.7166
15.2741
14.8343
14.3976
13.9642
13.5343
13.1082
12.6862
12.2684
11.8552
11.4469
11.0436
10.6457
10.2535
9.8672
9.4870
9.1133
8.7462
8.3860
8.0330
7.6874
7.3493
7.0191
6.6968
6.3826
6.0768
5.7794
5.4905
5.2103
4.9389
4.6762
4.4224
4.1775
3.9415
3.7143
3.4960
3.2865
3.0857
2.8935
2.7099
2.5346
2.3676
2.2087
2.0578
1.9146
1.7790
1.6508
1.5297
1.4155
1.3080
1.2070
1.1123
1.0235
0.9404
0.8629
0.7906
0.7233
0.6607
0.6027
0.5490
0.4993
0.4534
0.4111
0.3722
0.3365
0.3037
0.2737
0.2463
0.2213
0.1985
0.1778
0.1590
0.1419
0.1265
0.1126
0.1000
0.0887
0.0786
0.0695
0.0614
0.0541
0.0476
0.0418
0.0367
0.0321
0.0281
0.0245
0.0214
0.0186
0.0161
0.0140
0.0121
0.0105
0.0090
0.0078
0.0067
0.0057
0.0049
0.0042
0.0036
0.0031
0.0026
0.0022
0.0019
0.0016
0.0013
0.0011
0.0010
0.0008
0.0007
0.0006
0.0005
0.0004
0.0003
0.0003
0.0002
0.0002
0.0002
0.0001
0.0001
0.0001
0.0001
0.0001
0.0000
0.0000
0.0000
0.0000
0.0000
0.0000
0.0000
0.0000
0.0000
0.0000
0.0000
0.0000
0.0000
0.0000
0.0000
0.0000
0.0000
0.0000
0.0000
0.0000
0.0000
0.0000
0.0000
0.0000
0.0000
0.0000
0.0000
0.0000
0.0000
0.0000
0.0000
0.0000
0.0000
0.0000
0.0000
0.0000
0.0000
0.0000
0.0000
0.0000
0.0000
0.0000
0.0000
0.0000
0.0000
0.0000
0.0000
0.0000
0.0000
0.0000
0.0000
0.0000
0.0000
72.5386
72.5386
73.4579
75.6803
79.3109
83.5901
86.6666
87.9201
87.6186
86.2883
84.3987
82.2800
80.1356
78.0784
76.1628
74.4087
72.8166
71.3768
70.0748
68.8948
67.8210
66.8388
65.9351
65.0983
64.3182
63.5863
62.8952
62.2384
61.6108
61.0078
60.4256
59.8610
59.3113
58.7743
58.2479
57.7306
57.2211
56.7180
56.2206
55.7280
55.2393
54.7542
54.2720
53.7923
53.3148
52.8392
52.3651
51.8924
51.4209
50.9504
50.4807
50.0118
49.5436
49.0759
48.6086
48.1418
47.6753
47.2092
46.7433
46.2776
45.8122
45.3469
44.8818
44.4167
43.9518
43.4870
43.0223
42.5576
42.0930
41.6284
41.1639
40.6994
40.2349
39.7704
39.3059
38.8415
38.3770
37.9125
37.4480
36.9835
36.5189
36.0544
35.5898
35.1251
34.6604
34.1957
33.7309
33.2660
32.8011
32.3361
31.8711
31.4060
30.9408
30.4755
30.0102
29.5448
29.0794
28.6139
28.1483
27.6827
27.2171
26.7515
26.2859
25.8204
25.3549
24.8896
24.4244
23.9593
23.4945
23.0301
22.5659
22.1022
21.6390
21.1765
20.7146
20.2535
19.7933
19.3342
18.8762
18.4196
17.9644
17.5109
17.0591
16.6094
16.1618
15.7166
15.2741
14.8343
14.3976
13.9642
13.5343
13.1082
12.6862
12.2684
11.8552
11.4469
11.0436
10.6457
10.2535
9.8672
9.4870
9.1133
8.7462
8.3860
8.0330
7.6874
7.3493
7.0191
6.6968
6.3826
6.0768
5.7794
5.4905
5.2103
4.9389
4.6762
4.4224
4.1775
3.9415
3.7143
3.4960
3.2865
3.0857
2.8935
2.7099
2.5346
2.3676
2.2087
2.0578
1.9146
1.7790
1.6508
1.5297
1.4155
1.3080
1.2070
1.1123
1.0235
0.9404
0.8629
0.7906
0.7233
0.6607
0.6027
0.5490
0.4993
0.4534
0.4111
0.3722
0.3365
0.3037
0.2737
0.2463
0.2213
0.1985
0.1778
0.1590
0.1419
0.1265
0.1126
0.1000
0.0887
0.0786
0.0695
0.0614
0.0541
0.0476
0.0418
0.0367
0.0321
0.0281
0.0245
0.0214
0.0186
0.0161
0.0140
0.0121
0.0105
0.0090
0.0078
0.0067
0.0057
0.0049
0.0042
0.0036
0.0031
0.0026
0.0022
0.0019
0.0016
0.0013
0.0011
0.0010
0.0008
0.0007
0.0006
0.0005
0.0004
0.0003
0.0003
0.0002
0.0002
0.0002
0.0001
0.0001
0.0001
0.0001
0.0001
0.0000
0.0000
0.0000
0.0000
0.0000
0.0000
0.0000
0.0000
0.0000
0.0000
0.0000
0.0000
0.0000
0.0000
0.0000
0.0000
0.0000
0.0000
0.0000
0.0000
0.0000
0.0000
0.0000
0.0000
0.0000
0.0000
0.0000
0.0000
0.0000
0.0000
0.0000
0.0000
0.0000
0.0000
0.0000
0.0000
0.0000
0.0000
0.0000
0.0000
0.0000
0.0000
0.0000
0.0000
0.0000
0.0000
0.0000
0.0000
0.0000
0.0000
0.0000
0.0000
0.0000
80.0618
80.0618
82.1318
87.3437
96.3358
107.1132
112.4965
112.6127
109.5570
105.0745
100.2114
95.4995
91.1706
87.2994
83.8845
80.8913
78.2726
75.9796
73.9665
72.1917
70.6192
69.2176
67.9605
66.8252
65.7926
64.8466
63.9737
63.1624
62.4032
61.6881
61.0102
60.3638
59.7442
59.1472
58.5695
58.0082
57.4608
56.9252
56.3998
55.8831
55.3737
54.8706
54.3730
53.8799
53.3909
52.9053
52.4226
51.9424
51.4644
50.9882
50.5137
50.0406
49.5686
49.0977
48.6277
48.1585
47.6899
47.2219
46.7544
46.2874
45.8207
45.3543
44.8883
44.4224
43.9568
43.4914
43.0261
42.5610
42.0959
41.6310
41.1661
40.7013
40.2366
39.7719
39.3073
38.8426
38.3780
37.9134
37.4488
36.9842
36.5196
36.0549
35.5902
35.1255
34.6608
34.1960
33.7312
33.2663
32.8013
32.3363
31.8712
31.4061
30.9409
30.4756
30.0103
29.5449
29.0794
28.6139
28.1484
27.6828
27.2172
26.7516
26.2860
25.8204
25.3550
24.8896
24.4244
23.9594
23.4946
23.0301
22.5659
22.1022
21.6391
21.1765
20.7146
20.2535
19.7933
19.3342
18.8762
18.4196
17.9644
17.5109
17.0591
16.6094
16.1618
15.7166
15.2741
14.8343
14.3976
13.9642
13.5343
13.1082
12.6862
12.2684
11.8552
11.4469
11.0436
10.6457
10.2535
9.8672
9.4870
9.1133
8.7462
8.3860
8.0330
7.6874
7.3493
7.0191
6.6968
6.3826
6.0768
5.7794
5.4905
5.2103
4.9389
4.6762
4.4224
4.1775
3.9415
3.7143
3.4960
3.2865
3.0857
2.8935
2.7099
2.5346
2.3676
2.2087
2.0578
1.9146
1.7790
1.6508
1.5297
1.4155
1.3080
1.2070
1.1123
1.0235
0.9404
0.8629
0.7906
0.7233
0.6607
0.6027
0.5490
0.4993
0.4534
0.4111
0.3722
0.3365
0.3037
0.2737
0.2463
0.2213
0.1985
0.1778
0.1590
0.1419
0.1265
0.1126
0.1000
0.0887
0.0786
0.0695
0.0614
0.0541
0.0476
0.0418
0.0367
0.0321
0.0281
0.0245
0.0214
0.0186
0.0161
0.0140
0.0121
0.0105
0.0090
0.0078
0.0067
0.0057
0.0049
0.0042
0.0036
0.0031
0.0026
0.0022
0.0019
0.0016
0.0013
0.0011
0.0010
0.0008
0.0007
0.0006
0.0005
0.0004
0.0003
0.0003
0.0002
0.0002
0.0002
0.0001
0.0001
0.0001
0.0001
0.0001
0.0000
0.0000
0.0000
0.0000
0.0000
0.0000
0.0000
0.0000
0.0000
0.0000
0.0000
0.0000
0.0000
0.0000
0.0000
0.0000
0.0000
0.0000
0.0000
0.0000
0.0000
0.0000
0.0000
0.0000
0.0000
0.0000
0.0000
0.0000
0.0000
0.0000
0.0000
0.0000
0.0000
0.0000
0.0000
0.0000
0.0000
0.0000
0.0000
0.0000
0.0000
0.0000
0.0000
0.0000
0.0000
0.0000
0.0000
0.0000
0.0000
0.0000
0.0000
0.0000
0.0000
91.1630
91.1630
95.5887
107.4876
130.3005
160.6124
165.9929
158.3481
146.6025
134.6838
123.9434
114.6798
106.8178
100.1750
94.5584
89.7947
85.7371
82.2643
79.2762
76.6910
74.4412
72.4713
70.7355
69.1958
67.8208
66.5841
65.4640
64.4422
63.5033
62.6347
61.8254
61.0666
60.3504
59.6707
59.0218
58.3993
57.7992
57.2183
56.6537
56.1032
55.5647
55.0364
54.5170
54.0051
53.4997
52.9999
52.5049
52.0141
51.5269
51.0427
50.5612
50.0820
49.6048
49.1293
48.6553
48.1826
47.7110
47.2403
46.7705
46.3015
45.8330
45.3651
44.8977
44.4307
43.9641
43.4978
43.0317
42.5659
42.1002
41.6348
41.1695
40.7043
40.2392
39.7742
39.3092
38.8444
38.3796
37.9148
37.4500
36.9852
36.5205
36.0557
35.5910
35.1262
34.6613
34.1965
33.7316
33.2666
32.8017
32.3366
31.8715
31.4063
30.9411
30.4758
30.0105
29.5450
29.0796
28.6140
28.1485
27.6829
27.2173
26.7516
26.2860
25.8205
25.3550
24.8896
24.4244
23.9594
23.4946
23.0301
22.5660
22.1023
21.6391
21.1765
20.7146
20.2535
19.7933
19.3342
18.8762
18.4196
17.9644
17.5109
17.0591
16.6094
16.1618
15.7167
15.2741
14.8343
14.3976
13.9642
13.5343
13.1082
12.6862
12.2684
11.8552
11.4469
11.0436
10.6457
10.2535
9.8672
9.4870
9.1133
8.7462
8.3860
8.0330
7.6874
7.3493
7.0191
6.6968
6.3826
6.0768
5.7794
5.4905
5.2103
4.9389
4.6762
4.4224
4.1775
3.9415
3.7143
3.4960
3.2865
3.0857
2.8935
2.7099
2.5346
2.3676
2.2087
2.0578
1.9146
1.7790
1.6508
1.5297
1.4155
1.3080
1.2070
1.1123
1.0235
0.9404
0.8629
0.7906
0.7233
0.6607
0.6027
0.5490
0.4993
0.4534
0.4111
0.3722
0.3365
0.3037
0.2737
0.2463
0.2213
0.1985
0.1778
0.1590
0.1419
0.1265
0.1126
0.1000
0.0887
0.0786
0.0695
0.0614
0.0541
0.0476
0.0418
0.0367
0.0321
0.0281
0.0245
0.0214
0.0186
0.0161
0.0140
0.0121
0.0105
0.0090
0.0078
0.0067
0.0057
0.0049
0.0042
0.0036
0.0031
0.0026
0.0022
0.0019
0.0016
0.0013
0.0011
0.0010
0.0008
0.0007
0.0006
0.0005
0.0004
0.0003
0.0003
0.0002
0.0002
0.0002
0.0001
0.0001
0.0001
0.0001
0.0001
0.0000
0.0000
0.0000
0.0000
0.0000
0.0000
0.0000
0.0000
0.0000
0.0000
0.0000
0.0000