# vtk DataFile Version 5.0
Example 3D regular grid VTK file.
ASCII
DATASET UNSTRUCTURED_GRID
POINTS 90601 float
0 0 0
0 10 0
0 20 0
0 30 0
0 40 0
0 50 0
0 60 0
0 70 0
0 80 0
0 90 0
0 100 0
0 110 0
0 120 0
0 130 0
0 140 0
0 150 0
0 160 0
0 170 0
0 180 0
0 190 0
0 200 0
0 210 0
0 220 0
0 230 0
0 240 0
0 250 0
0 260 0
0 270 0
0 280 0
0 290 0
0 300 0
0 310 0
0 320 0
0 330 0
0 340 0
0 350 0
0 360 0
0 370 0
0 380 0
0 390 0
0 400 0
0 410 0
0 420 0
0 430 0
0 440 0
0 450 0
0 460 0
0 470 0
0 480 0
0 490 0
0 500 0
0 510 0
0 520 0
0 530 0
0 540 0
0 550 0
0 560 0
0 570 0
0 580 0
0 590 0
0 600 0
0 610 0
0 620 0
0 630 0
0 640 0
0 650 0
0 660 0
0 670 0
0 680 0
0 690 0
0 700 0
0 710 0
0 720 0
0 730 0
0 740 0
0 750 0
0 760 0
0 770 0
0 780 0
0 790 0
0 800 0
0 810 0
0 820 0
0 830 0
0 840 0
0 850 0
0 860 0
0 870 0
0 880 0
0 890 0
0 900 0
0 910 0
0 920 0
0 930 0
0 940 0
0 950 0
0 960 0
0 970 0
0 980 0
0 990 0
0 1000 0
0 1010 0
0 1020 0
0 1030 0
0 1040 0
0 1050 0
0 1060 0
0 1070 0
0 1080 0
0 1090 0
0 1100 0
0 1110 0
0 1120 0
0 1130 0
0 1140 0
0 1150 0
0 1160 0
0 1170 0
0 1180 0
0 1190 0
0 1200 0
0 1210 0
0 1220 0
0 1230 0
0 1240 0
0 1250 0
0 1260 0
0 1270 0
0 1280 0
0 1290 0
0 1300 0
0 1310 0
0 1320 0
0 1330 0
0 1340 0
0 1350 0
0 1360 0
0 1370 0
0 1380 0
0 1390 0
0 1400 0
0 1410 0
0 1420 0
0 1430 0
0 1440 0
0 1450 0
0 1460 0
0 1470 0
0 1480 0
0 1490 0
0 1500 0
0 1510 0
0 1520 0
0 1530 0
0 1540 0
0 1550 0
0 1560 0
0 1570 0
0 1580 0
0 1590 0
0 1600 0
0 1610 0
0 1620 0
0 1630 0
0 1640 0
0 1650 0
0 1660 0
0 1670 0
0 1680 0
0 1690 0
0 1700 0
0 1710 0
0 1720 0
0 1730 0
0 1740 0
0 1750 0
0 1760 0
0 1770 0
0 1780 0
0 1790 0
0 1800 0
0 1810 0
0 1820 0
0 1830 0
0 1840 0
0 1850 0
0 1860 0
0 1870 0
0 1880 0
0 1890 0
0 1900 0
0 1910 0
0 1920 0
0 1930 0
0 1940 0
0 1950 0
0 1960 0
0 1970 0
0 1980 0
0 1990 0
0 2000 0
0 2010 0
0 2020 0
0 2030 0
0 2040 0
0 2050 0
0 2060 0
0 2070 0
0 2080 0
0 2090 0
0 2100 0
0 2110 0
0 2120 0
0 2130 0
0 2140 0
0 2150 0
0 2160 0
0 2170 0
0 2180 0
0 2190 0
0 2200 0
0 2210 0
0 2220 0
0 2230 0
0 2240 0
0 2250 0
0 2260 0
0 2270 0
0 2280 0
0 2290 0
0 2300 0
0 2310 0
0 2320 0
0 2330 0
0 2340 0
0 2350 0
0 2360 0
0 2370 0
0 2380 0
0 2390 0
0 2400 0
0 2410 0
0 2420 0
0 2430 0
0 2440 0
0 2450 0
0 2460 0
0 2470 0
0 2480 0
0 2490 0
0 2500 0
0 2510 0
0 2520 0
0 2530 0
0 2540 0
0 2550 0
0 2560 0
0 2570 0
0 2580 0
0 2590 0
0 2600 0
0 2610 0
0 2620 0
0 2630 0
0 2640 0
0 2650 0
0 2660 0
0 2670 0
0 2680 0
0 2690 0
0 2700 0
0 2710 0
0 2720 0
0 2730 0
0 2740 0
0 2750 0
0 2760 0
0 2770 0
0 2780 0
0 2790 0
0 2800 0
0 2810 0
0 2820 0
0 2830 0
0 2840 0
0 2850 0
0 2860 0
0 2870 0
0 2880 0
0 2890 0
0 2900 0
0 2910 0
0 2920 0
0 2930 0
0 2940 0
0 2950 0
0 2960 0
0 2970 0
0 2980 0
0 2990 0
0 3000 0
10 0 0
10 10 0
10 20 0
10 30 0
10 40 0
10 50 0
10 60 0
10 70 0
10 80 0
10 90 0
10 100 0
10 110 0
10 120 0
10 130 0
10 140 0
10 150 0
10 160 0
10 170 0
10 180 0
10 190 0
10 200 0
10 210 0
10 220 0
10 230 0
10 240 0
10 250 0
10 260 0
10 270 0
10 280 0
10 290 0
10 300 0
10 310 0
10 320 0
10 330 0
10 340 0
10 350 0
10 360 0
10 370 0
10 380 0
10 390 0
10 400 0
10 410 0
10 420 0
10 430 0
10 440 0
10 450 0
10 460 0
10 470 0
10 480 0
10 490 0
10 500 0
10 510 0
10 520 0
10 530 0
10 540 0
10 550 0
10 560 0
10 570 0
10 580 0
10 590 0
10 600 0
10 610 0
10 620 0
10 630 0
10 640 0
10 650 0
10 660 0
10 670 0
10 680 0
10 690 0
10 700 0
10 710 0
10 720 0
10 730 0
10 740 0
10 750 0
10 760 0
10 770 0
10 780 0
10 790 0
10 800 0
10 810 0
10 820 0
10 830 0
10 840 0
10 850 0
10 860 0
10 870 0
10 880 0
10 890 0
10 900 0
10 910 0
10 920 0
10 930 0
10 940 0
10 950 0
10 960 0
10 970 0
10 980 0
10 990 0
10 1000 0
10 1010 0
10 1020 0
10 1030 0
10 1040 0
10 1050 0
10 1060 0
10 1070 0
10 1080 0
10 1090 0
10 1100 0
10 1110 0
10 1120 0
10 1130 0
10 1140 0
10 1150 0
10 1160 0
10 1170 0
10 1180 0
10 1190 0
10 1200 0
10 1210 0
10 1220 0
10 1230 0
10 1240 0
10 1250 0
10 1260 0
10 1270 0
10 1280 0
10 1290 0
10 1300 0
10 1310 0
10 1320 0
10 1330 0
10 1340 0
10 1350 0
10 1360 0
10 1370 0
10 1380 0
10 1390 0
10 1400 0
10 1410 0
10 1420 0
10 1430 0
10 1440 0
10 1450 0
10 1460 0
10 1470 0
10 1480 0
10 1490 0
10 1500 0
10 1510 0
10 1520 0
10 1530 0
10 1540 0
10 1550 0
10 1560 0
10 1570 0
10 1580 0
10 1590 0
10 1600 0
10 1610 0
10 1620 0
10 1630 0
10 1640 0
10 1650 0
10 1660 0
10 1670 0
10 1680 0
10 1690 0
10 1700 0
10 1710 0
10 1720 0
10 1730 0
10 1740 0
10 1750 0
10 1760 0
10 1770 0
10 1780 0
10 1790 0
10 1800 0
10 1810 0
10 1820 0
10 1830 0
10 1840 0
10 1850 0
10 1860 0
10 1870 0
10 1880 0
10 1890 0
10 1900 0
10 1910 0
10 1920 0
10 1930 0
10 1940 0
10 1950 0
10 1960 0
10 1970 0
10 1980 0
10 1990 0
10 2000 0
10 2010 0
10 2020 0
10 2030 0
10 2040 0
10 2050 0
10 2060 0
10 2070 0
10 2080 0
10 2090 0
10 2100 0
10 2110 0
10 2120 0
10 2130 0
10 2140 0
10 2150 0
10 2160 0
10 2170 0
10 2180 0
10 2190 0
10 2200 0
10 2210 0
10 2220 0
10 2230 0
10 2240 0
10 2250 0
10 2260 0
10 2270 0
10 2280 0
10 2290 0
10 2300 0
10 2310 0
10 2320 0
10 2330 0
10 2340 0
10 2350 0
10 2360 0
10 2370 0
10 2380 0
10 2390 0
10 2400 0
10 2410 0
10 2420 0
10 2430 0
10 2440 0
10 2450 0
10 2460 0
10 2470 0
10 2480 0
10 2490 0
10 2500 0
10 2510 0
10 2520 0
10 2530 0
10 2540 0
10 2550 0
10 2560 0
10 2570 0
10 2580 0
10 2590 0
10 2600 0
10 2610 0
10 2620 0
10 2630 0
10 2640 0
10 2650 0
10 2660 0
10 2670 0
10 2680 0
10 2690 0
10 2700 0
10 2710 0
10 2720 0
10 2730 0
10 2740 0
10 2750 0
10 2760 0
10 2770 0
10 2780 0
10 2790 0
10 2800 0
10 2810 0
10 2820 0
10 2830 0
10 2840 0
10 2850 0
10 2860 0
10 2870 0
10 2880 0
10 2890 0
10 2900 0
10 2910 0
10 2920 0
10 2930 0
10 2940 0
10 2950 0
10 2960 0
10 2970 0
10 2980 0
10 2990 0
10 3000 0
20 0 0
20 10 0
20 20 0
20 30 0
20 40 0
20 50 0
20 60 0
20 70 0
20 80 0
20 90 0
20 100 0
20 110 0
20 120 0
20 130 0
20 140 0
20 150 0
20 160 0
20 170 0
20 180 0
20 190 0
20 200 0
20 210 0
20 220 0
20 230 0
20 240 0
20 250 0
20 260 0
20 270 0
20 280 0
20 290 0
20 300 0
20 310 0
20 320 0
20 330 0
20 340 0
20 350 0
20 360 0
20 370 0
20 380 0
20 390 0
20 400 0
20 410 0
20 420 0
20 430 0
20 440 0
20 450 0
20 460 0
20 470 0
20 480 0
20 490 0
20 500 0
20 510 0
20 520 0
20 530 0
20 540 0
20 550 0
20 560 0
20 570 0
20 580 0
20 590 0
20 600 0
20 610 0
20 620 0
20 630 0
20 640 0
20 650 0
20 660 0
20 670 0
20 680 0
20 690 0
20 700 0
20 710 0
20 720 0
20 730 0
20 740 0
20 750 0
20 760 0
20 770 0
20 780 0
20 790 0
20 800 0
20 810 0
20 820 0
20 830 0
20 840 0
20 850 0
20 860 0
20 870 0
20 880 0
20 890 0
20 900 0
20 910 0
20 920 0
20 930 0
20 940 0
20 950 0
20 960 0
20 970 0
20 980 0
20 990 0
20 1000 0
20 1010 0
20 1020 0
20 1030 0
20 1040 0
20 1050 0
20 1060 0
20 1070 0
20 1080 0
20 1090 0
20 1100 0
20 1110 0
20 1120 0
20 1130 0
20 1140 0
20 1150 0
20 1160 0
20 1170 0
20 1180 0
20 1190 0
20 1200 0
20 1210 0
20 1220 0
20 1230 0
20 1240 0
20 1250 0
20 1260 0
20 1270 0
20 1280 0
20 1290 0
20 1300 0
20 1310 0
20 1320 0
20 1330 0
20 1340 0
20 1350 0
20 1360 0
20 1370 0
20 1380 0
20 1390 0
20 1400 0
20 1410 0
20 1420 0
20 1430 0
20 1440 0
20 1450 0
20 1460 0
20 1470 0
20 1480 0
20 1490 0
20 1500 0
20 1510 0
20 1520 0
20 1530 0
20 1540 0
20 1550 0
20 1560 0
20 1570 0
20 1580 0
20 1590 0
20 1600 0
20 1610 0
20 1620 0
20 1630 0
20 1640 0
20 1650 0
20 1660 0
20 1670 0
20 1680 0
20 1690 0
20 1700 0
20 1710 0
20 1720 0
20 1730 0
20 1740 0
20 1750 0
20 1760 0
20 1770 0
20 1780 0
20 1790 0
20 1800 0
20 1810 0
20 1820 0
20 1830 0
20 1840 0
20 1850 0
20 1860 0
20 1870 0
20 1880 0
20 1890 0
20 1900 0
20 1910 0
20 1920 0
20 1930 0
20 1940 0
20 1950 0
20 1960 0
20 1970 0
20 1980 0
20 1990 0
20 2000 0
20 2010 0
20 2020 0
20 2030 0
20 2040 0
20 2050 0
20 2060 0
20 2070 0
20 2080 0
20 2090 0
20 2100 0
20 2110 0
20 2120 0
20 2130 0
20 2140 0
20 2150 0
20 2160 0
20 2170 0
20 2180 0
20 2190 0
20 2200 0
20 2210 0
20 2220 0
20 2230 0
20 2240 0
20 2250 0
20 2260 0
20 2270 0
20 2280 0
20 2290 0
20 2300 0
20 2310 0
20 2320 0
20 2330 0
20 2340 0
20 2350 0
20 2360 0
20 2370 0
20 2380 0
20 2390 0
20 2400 0
20 2410 0
20 2420 0
20 2430 0
20 2440 0
20 2450 0
20 2460 0
20 2470 0
20 2480 0
20 2490 0
20 2500 0
20 2510 0
20 2520 0
20 2530 0
20 2540 0
20 2550 0
20 2560 0
20 2570 0
20 2580 0
20 2590 0
20 2600 0
20 2610 0
20 2620 0
20 2630 0
20 2640 0
20 2650 0
20 2660 0
20 2670 0
20 2680 0
20 2690 0
20 2700 0
20 2710 0
20 2720 0
20 2730 0
20 2740 0
20 2750 0
20 2760 0
20 2770 0
20 2780 0
20 2790 0
20 2800 0
20 2810 0
20 2820 0
20 2830 0
20 2840 0
20 2850 0
20 2860 0
20 2870 0
20 2880 0
20 2890 0
20 2900 0
20 2910 0
20 2920 0
20 2930 0
20 2940 0
20 2950 0
20 2960 0
20 2970 0
20 2980 0
20 2990 0
20 3000 0
30 0 0
30 10 0
30 20 0
30 30 0
30 40 0
30 50 0
30 60 0
30 70 0
30 80 0
30 90 0
30 100 0
30 110 0
30 120 0
30 130 0
30 140 0
30 150 0
30 160 0
30 170 0
30 180 0
30 190 0
30 200 0
30 210 0
30 220 0
30 230 0
30 240 0
30 250 0
30 260 0
30 270 0
30 280 0
30 290 0
30 300 0
30 310 0
30 320 0
30 330 0
30 340 0
30 350 0
30 360 0
30 370 0
30 380 0
30 390 0
30 400 0
30 410 0
30 420 0
30 430 0
30 440 0
30 450 0
30 460 0
30 470 0
30 480 0
30 490 0
30 500 0
30 510 0
30 520 0
30 530 0
30 540 0
30 550 0
30 560 0
30 570 0
30 580 0
30 590 0
30 600 0
30 610 0
30 620 0
30 630 0
30 640 0
30 650 0
30 660 0
30 670 0
30 680 0
30 690 0
30 700 0
30 710 0
30 720 0
30 730 0
30 740 0
30 750 0
30 760 0
30 770 0
30 780 0
30 790 0
30 800 0
30 810 0
30 820 0
30 830 0
30 840 0
30 850 0
30 860 0
30 870 0
30 880 0
30 890 0
30 900 0
30 910 0
30 920 0
30 930 0
30 940 0
30 950 0
30 960 0
30 970 0
30 980 0
30 990 0
30 1000 0
30 1010 0
30 1020 0
30 1030 0
30 1040 0
30 1050 0
30 1060 0
30 1070 0
30 1080 0
30 1090 0
30 1100 0
30 1110 0
30 1120 0
30 1130 0
30 1140 0
30 1150 0
30 1160 0
30 1170 0
30 1180 0
30 1190 0
30 1200 0
30 1210 0
30 1220 0
30 1230 0
30 1240 0
30 1250 0
30 1260 0
30 1270 0
30 1280 0
30 1290 0
30 1300 0
30 1310 0
30 1320 0
30 1330 0
30 1340 0
30 1350 0
30 1360 0
30 1370 0
30 1380 0
30 1390 0
30 1400 0
30 1410 0
30 1420 0
30 1430 0
30 1440 0
30 1450 0
30 1460 0
30 1470 0
30 1480 0
30 1490 0
30 1500 0
30 1510 0
30 1520 0
30 1530 0
30 1540 0
30 1550 0
30 1560 0
30 1570 0
30 1580 0
30 1590 0
[...]
POINT_DATA 90601
SCALARS P float
LOOKUP_TABLE default
67.0329
67.0329
67.0698
67.1579
67.3059
67.5126
67.7657
68.0444
68.3241
68.5821
68.7999
68.9651
69.0709
69.1152
69.0992
69.0265
68.9018
68.7304
68.5178
68.2692
67.9893
67.6825
67.3527
67.0031
66.6367
66.2559
65.8630
65.4597
65.0475
64.6278
64.2017
63.7702
63.3340
62.8939
62.4504
62.0040
61.5551
61.1041
60.6513
60.1970
59.7413
59.2845
58.8266
58.3680
57.9086
57.4486
56.9880
56.5270
56.0655
55.6037
55.1416
54.6793
54.2167
53.7539
53.2910
52.8279
52.3647
51.9013
51.4379
50.9744
50.5108
50.0471
49.5834
49.1196
48.6558
48.1920
47.7281
47.2642
46.8002
46.3363
45.8723
45.4083
44.9442
44.4802
44.0161
43.5520
43.0879
42.6238
42.1596
41.6954
41.2313
40.7670
40.3028
39.8386
39.3743
38.9099
38.4456
37.9812
37.5168
37.0523
36.5879
36.1233
35.6587
35.1941
34.7294
34.2647
33.7999
33.3351
32.8702
32.4052
31.9402
31.4751
31.0100
30.5449
30.0797
29.6144
29.1492
28.6839
28.2187
27.7534
27.2882
26.8231
26.3580
25.8931
25.4283
24.9637
24.4994
24.0354
23.5717
23.1084
22.6457
22.1835
21.7219
21.2611
20.8011
20.3421
19.8841
19.4274
18.9720
18.5180
18.0657
17.6152
17.1666
16.7201
16.2760
15.8344
15.3956
14.9596
14.5268
14.0974
13.6716
13.2497
12.8318
12.4182
12.0092
11.6050
11.2059
10.8121
10.4238
10.0414
9.6649
9.2948
8.9311
8.5742
8.2241
7.8813
7.5457
7.2177
6.8973
6.5848
6.2802
5.9838
5.6955
5.4156
5.1440
4.8810
4.6264
4.3803
4.1428
3.9137
3.6932
3.4812
3.2775
3.0822
2.8951
2.7162
2.5452
2.3821
2.2268
2.0790
1.9386
1.8054
1.6793
1.5599
1.4472
1.3409
1.2408
1.1466
1.0582
0.9753
0.8977
0.8252
0.7575
0.6944
0.6357
0.5811
0.5305
0.4836
0.4402
0.4002
0.3633
0.3293
0.2981
0.2695
0.2432
0.2192
0.1973
0.1773
0.1591
0.1425
0.1275
0.1139
0.1016
0.0905
0.0805
0.0715
0.0634
0.0561
0.0496
0.0438
0.0386
0.0340
0.0299
0.0262
0.0229
0.0201
0.0175
0.0153
0.0133
0.0116
0.0100
0.0087
0.0075
0.0065
0.0056
0.0048
0.0041
0.0036
0.0031
0.0026
0.0022
0.0019
0.0016
0.0014
0.0012
0.0010
0.0008
0.0007
0.0006
0.0005
0.0004
0.0004
0.0003
0.0002
0.0002
0.0002
0.0001
0.0001
0.0001
0.0001
0.0001
0.0001
0.0000
0.0000
0.0000
0.0000
0.0000
0.0000
0.0000
0.0000
0.0000
0.0000
0.0000
0.0000
0.0000
0.0000
0.0000
0.0000
0.0000
0.0000
0.0000
0.0000
0.0000
0.0000
0.0000
0.0000
0.0000
0.0000
0.0000
0.0000
0.0000
0.0000
0.0000
0.0000
0.0000
0.0000
0.0000
0.0000
0.0000
0.0000
0.0000
67.0329
67.0329
67.0698
67.1579
67.3059
67.5126
67.7657
68.0444
68.3241
68.5821
68.7999
68.9651
69.0709
69.1152
69.0992
69.0265
68.9018
68.7304
68.5178
68.2692
67.9893
67.6825
67.3527
67.0031
66.6367
66.2559
65.8630
65.4597
65.0475
64.6278
64.2017
63.7702
63.3340
62.8939
62.4504
62.0040
61.5551
61.1041
60.6513
60.1970
59.7413
59.2845
58.8266
58.3680
57.9086
57.4486
56.9880
56.5270
56.0655
55.6037
55.1416
54.6793
54.2167
53.7539
53.2910
52.8279
52.3647
51.9013
51.4379
50.9744
50.5108
50.0471
49.5834
49.1196
48.6558
48.1920
47.7281
47.2642
46.8002
46.3363
45.8723
45.4083
44.9442
44.4802
44.0161
43.5520
43.0879
42.6238
42.1596
41.6954
41.2313
40.7670
40.3028
39.8386
39.3743
38.9099
38.4456
37.9812
37.5168
37.0523
36.5879
36.1233
35.6587
35.1941
34.7294
34.2647
33.7999
33.3351
32.8702
32.4052
31.9402
31.4751
31.0100
30.5449
30.0797
29.6144
29.1492
28.6839
28.2187
27.7534
27.2882
26.8231
26.3580
25.8931
25.4283
24.9637
24.4994
24.0354
23.5717
23.1084
22.6457
22.1835
21.7219
21.2611
20.8011
20.3421
19.8841
19.4274
18.9720
18.5180
18.0657
17.6152
17.1666
16.7201
16.2760
15.8344
15.3956
14.9596
14.5268
14.0974
13.6716
13.2497
12.8318
12.4182
12.0092
11.6050
11.2059
10.8121
10.4238
10.0414
9.6649
9.2948
8.9311
8.5742
8.2241
7.8813
7.5457
7.2177
6.8973
6.5848
6.2802
5.9838
5.6955
5.4156
5.1440
4.8810
4.6264
4.3803
4.1428
3.9137
3.6932
3.4812
3.2775
3.0822
2.8951
2.7162
2.5452
2.3821
2.2268
2.0790
1.9386
1.8054
1.6793
1.5599
1.4472
1.3409
1.2408
1.1466
1.0582
0.9753
0.8977
0.8252
0.7575
0.6944
0.6357
0.5811
0.5305
0.4836
0.4402
0.4002
0.3633
0.3293
0.2981
0.2695
0.2432
0.2192
0.1973
0.1773
0.1591
0.1425
0.1275
0.1139
0.1016
0.0905
0.0805
0.0715
0.0634
0.0561
0.0496
0.0438
0.0386
0.0340
0.0299
0.0262
0.0229
0.0201
0.0175
0.0153
0.0133
0.0116
0.0100
0.0087
0.0075
0.0065
0.0056
0.0048
0.0041
0.0036
0.0031
0.0026
0.0022
0.0019
0.0016
0.0014
0.0012
0.0010
0.0008
0.0007
0.0006
0.0005
0.0004
0.0004
0.0003
0.0002
0.0002
0.0002
0.0001
0.0001
0.0001
0.0001
0.0001
0.0001
0.0000
0.0000
0.0000
0.0000
0.0000
0.0000
0.0000
0.0000
0.0000
0.0000
0.0000
0.0000
0.0000
0.0000
0.0000
0.0000
0.0000
0.0000
0.0000
0.0000
0.0000
0.0000
0.0000
0.0000
0.0000
0.0000
0.0000
0.0000
0.0000
0.0000
0.0000
0.0000
0.0000
0.0000
0.0000
0.0000
0.0000
0.0000
0.0000
67.3242
67.3242
67.3729
67.4885
67.6799
67.9405
68.2474
68.5684
68.8719
69.1327
69.3346
69.4694
69.5354
69.5349
69.4729
69.3552
69.1884
68.9786
68.7317
68.4528
68.1465
67.8169
67.4673
67.1009
66.7201
66.3271
65.9237
65.5115
65.0917
64.6656
64.2341
63.7979
63.3577
62.9142
62.4678
62.0190
61.5680
61.1152
60.6609
60.2052
59.7484
59.2906
58.8319
58.3725
57.9125
57.4520
56.9910
56.5295
56.0677
55.6057
55.1433
54.6808
54.2180
53.7550
53.2920
52.8287
52.3654
51.9020
51.4385
50.9749
50.5112
50.0475
49.5837
49.1199
48.6561
48.1922
47.7283
47.2644
46.8004
46.3364
45.8724
45.4084
44.9443
44.4802
44.0162
43.5521
43.0879
42.6238
42.1597
41.6955
41.2313
40.7671
40.3028
39.8386
39.3743
38.9100
38.4456
37.9812
37.5168
37.0524
36.5879
36.1233
35.6587
35.1941
34.7294
34.2647
33.7999
33.3351
32.8702
32.4052
31.9402
31.4751
31.0100
30.5449
30.0797
29.6144
29.1492
28.6839
28.2187
27.7534
27.2882
26.8231
26.3580
25.8931
25.4283
24.9637
24.4994
24.0354
23.5717
23.1084
22.6457
22.1835
21.7219
21.2611
20.8011
20.3421
19.8841
19.4274
18.9720
18.5180
18.0657
17.6152
17.1666
16.7201
16.2760
15.8344
15.3956
14.9596
14.5268
14.0974
13.6716
13.2497
12.8318
12.4182
12.0092
11.6050
11.2059
10.8121
10.4238
10.0414
9.6649
9.2948
8.9311
8.5742
8.2241
7.8813
7.5457
7.2177
6.8973
6.5848
6.2802
5.9838
5.6955
5.4156
5.1440
4.8810
4.6264
4.3803
4.1428
3.9137
3.6932
3.4812
3.2775
3.0822
2.8951
2.7162
2.5452
2.3821
2.2268
2.0790
1.9386
1.8054
1.6793
1.5599
1.4472
1.3409
1.2408
1.1466
1.0582
0.9753
0.8977
0.8252
0.7575
0.6944
0.6357
0.5811
0.5305
0.4836
0.4402
0.4002
0.3633
0.3293
0.2981
0.2695
0.2432
0.2192
0.1973
0.1773
0.1591
0.1425
0.1275
0.1139
0.1016
0.0905
0.0805
0.0715
0.0634
0.0561
0.0496
0.0438
0.0386
0.0340
0.0299
0.0262
0.0229
0.0201
0.0175
0.0153
0.0133
0.0116
0.0100
0.0087
0.0075
0.0065
0.0056
0.0048
0.0041
0.0036
0.0031
0.0026
0.0022
0.0019
0.0016
0.0014
0.0012
0.0010
0.0008
0.0007
0.0006
0.0005
0.0004
0.0004
0.0003
0.0002
0.0002
0.0002
0.0001
0.0001
0.0001
0.0001
0.0001
0.0001
0.0000
0.0000
0.0000
0.0000
0.0000
0.0000
0.0000
0.0000
0.0000
0.0000
0.0000
0.0000
0.0000
0.0000
0.0000
0.0000
0.0000
0.0000
0.0000
0.0000
0.0000
0.0000
0.0000
0.0000
0.0000
0.0000
0.0000
0.0000
0.0000
0.0000
0.0000
0.0000
0.0000
0.0000
0.0000
0.0000
0.0000
0.0000
0.0000
68.1007
68.1007
68.1862
68.3870
68.7127
69.1372
69.6006
70.0358
70.3925
70.6444
70.7854
70.8228
70.7696
70.6409
70.4505
70.2106
69.9309
69.6194
69.2823
68.9245
68.5497
68.1611
67.7610
67.3513
66.9336
66.5091
66.0790
65.6441
65.2050
64.7624
64.3169
63.8688
63.4185
62.9664
62.5126
62.0574
61.6011
61.1437
60.6854
60.2263
59.7666
59.3063
58.8455
58.3843
57.9227
57.4608
56.9986
56.5361
56.0735
55.6107
55.1477
54.6845
54.2213
53.7579
53.2944
52.8309
52.3673
51.9036
51.4399
50.9761
50.5123
50.0485
49.5846
49.1207
48.6567
48.1928
47.7288
47.2648
46.8008
46.3367
45.8727
45.4086
44.9445
44.4804
44.0163
43.5522
43.0881
42.6239
42.1598
41.6956
41.2314
40.7671
40.3029
39.8386
39.3743
38.9100
38.4456
37.9813
37.5168
37.0524
36.5879
36.1233
35.6588
35.1941
34.7294
34.2647
33.7999
33.3351
32.8702
32.4052
31.9402
31.4751
31.0100
30.5449
30.0797
29.6144
29.1492
28.6839
28.2187
27.7534
27.2882
26.8231
26.3580
25.8931
25.4283
24.9637
24.4994
24.0354
23.5717
23.1084
22.6457
22.1835
21.7219
21.2611
20.8011
20.3421
19.8841
19.4274
18.9720
18.5180
18.0657
17.6152
17.1666
16.7201
16.2760
15.8344
15.3956
14.9596
14.5268
14.0974
13.6716
13.2497
12.8318
12.4182
12.0092
11.6050
11.2059
10.8121
10.4238
10.0414
9.6649
9.2948
8.9311
8.5742
8.2241
7.8813
7.5457
7.2177
6.8973
6.5848
6.2802
5.9838
5.6955
5.4156
5.1440
4.8810
4.6264
4.3803
4.1428
3.9137
3.6932
3.4812
3.2775
3.0822
2.8951
2.7162
2.5452
2.3821
2.2268
2.0790
1.9386
1.8054
1.6793
1.5599
1.4472
1.3409
1.2408
1.1466
1.0582
0.9753
0.8977
0.8252
0.7575
0.6944
0.6357
0.5811
0.5305
0.4836
0.4402
0.4002
0.3633
0.3293
0.2981
0.2695
0.2432
0.2192
0.1973
0.1773
0.1591
0.1425
0.1275
0.1139
0.1016
0.0905
0.0805
0.0715
0.0634
0.0561
0.0496
0.0438
0.0386
0.0340
0.0299
0.0262
0.0229
0.0201
0.0175
0.0153
0.0133
0.0116
0.0100
0.0087
0.0075
0.0065
0.0056
0.0048
0.0041
0.0036
0.0031
0.0026
0.0022
0.0019
0.0016
0.0014
0.0012
0.0010
0.0008
0.0007
0.0006
0.0005
0.0004
0.0004
0.0003
0.0002
0.0002
0.0002
0.0001
0.0001
0.0001
0.0001
0.0001
0.0001
0.0000
0.0000
0.0000
0.0000
0.0000
0.0000
0.0000
0.0000
0.0000
0.0000
0.0000
0.0000
0.0000
0.0000
0.0000
0.0000
0.0000
0.0000
0.0000
0.0000
0.0000
0.0000
0.0000
0.0000
0.0000
0.0000
0.0000
0.0000
0.0000
0.0000
0.0000
0.0000
0.0000
0.0000
0.0000
0.0000
0.0000
0.0000
0.0000
69.6692
69.6692
69.8476
70.2661
70.9352
71.7697
72.5946
73.2553
73.6736
73.8418
73.7937
73.5781
73.2428
72.8277
72.3626
71.8689
71.3606
70.8468
70.3328
69.8218
69.3152
68.8136
68.3171
67.8252
67.3376
66.8537
66.3730
65.8951
65.4196
64.9460
64.4740
64.0034
63.5339
63.0654
62.5977
62.1306
61.6640
61.1979
60.7321
60.2666
59.8014
59.3364
58.8715
58.4068
57.9422
57.4776
57.0132
56.5488
56.0845
55.6202
55.1560
54.6917
54.2275
53.7634
53.2992
52.8350
52.3709
51.9068
51.4426
50.9785
50.5144
50.0503
49.5862
49.1221
48.6579
48.1938
47.7297
47.2656
46.8015
46.3374
45.8732
45.4091
44.9450
44.4808
44.0167
43.5525
43.0883
42.6241
42.1600
41.6957
41.2315
40.7673
40.3030
39.8387
39.3744
38.9101
38.4457
37.9813
37.5169
37.0524
36.5879
36.1234
35.6588
35.1941
34.7295
34.2647
33.7999
33.3351
32.8702
32.4052
31.9402
31.4752
31.0100
30.5449
30.0797
29.6144
29.1492
28.6839
28.2187
27.7534
27.2882
26.8231
26.3580
25.8931
25.4283
24.9637
24.4994
24.0354
23.5717
23.1084
22.6457
22.1835
21.7219
21.2611
20.8011
20.3421
19.8841
19.4274
18.9720
18.5180
18.0657
17.6152
17.1666
16.7201
16.2760
15.8344
15.3956
14.9596
14.5268
14.0974
13.6716
13.2497
12.8318
12.4182
12.0092
11.6050
11.2059
10.8121
10.4238
10.0414
9.6649
9.2948
8.9311
8.5742
8.2241
7.8813
7.5457
7.2177
6.8973
6.5848
6.2802
5.9838
5.6955
5.4156
5.1440
4.8810
4.6264
4.3803
4.1428
3.9137
3.6932
3.4812
3.2775
3.0822
2.8951
2.7162
2.5452
2.3821
2.2268
2.0790
1.9386
1.8054
1.6793
1.5599
1.4472
1.3409
1.2408
1.1466
1.0582
0.9753
0.8977
0.8252
0.7575
0.6944
0.6357
0.5811
0.5305
0.4836
0.4402
0.4002
0.3633
0.3293
0.2981
0.2695
0.2432
0.2192
0.1973
0.1773
0.1591
0.1425
0.1275
0.1139
0.1016
0.0905
0.0805
0.0715
0.0634
0.0561
0.0496
0.0438
0.0386
0.0340
0.0299
0.0262
0.0229
0.0201
0.0175
0.0153
0.0133
0.0116
0.0100
0.0087
0.0075
0.0065
0.0056
0.0048
0.0041
0.0036
0.0031
0.0026
0.0022
0.0019
0.0016
0.0014
0.0012
0.0010
0.0008
0.0007
0.0006
0.0005
0.0004
0.0004
0.0003
0.0002
0.0002
0.0002
0.0001
0.0001
0.0001
0.0001
0.0001
0.0001
0.0000
0.0000
0.0000
0.0000
0.0000
0.0000
0.0000
0.0000
0.0000
0.0000
0.0000
0.0000
0.0000
0.0000
0.0000
0.0000
0.0000
0.0000
0.0000
0.0000
0.0000
0.0000
0.0000
0.0000
0.0000
0.0000
0.0000
0.0000
0.0000
0.0000
0.0000
0.0000
0.0000
0.0000
0.0000
0.0000
0.0000
0.0000
0.0000
72.4965
72.4965
72.8979
73.8473
75.3655
77.1913
78.7814
79.7890
80.1488
79.9638
79.3909
78.5771
77.6358
76.6452
75.6549
74.6934
73.7755
72.9069
72.0879
71.3160
70.5869
69.8961
69.2387
68.6103
68.0069
67.4246
66.8605
66.3116
65.7758
65.2509
64.7352
64.2274
63.7262
63.2306
62.7397
62.2528
61.7693
61.2886
60.8104
60.3342
59.8598
59.3868
58.9152
58.4446
57.9749
57.5061
57.0378
56.5702
56.1031
55.6364
55.1700
54.7039
54.2382
53.7726
53.3073
52.8421
52.3770
51.9121
51.4473
50.9826
50.5180
50.0534
49.5889
49.1244
48.6600
48.1957
47.7313
47.2670
46.8027
46.3384
45.8742
45.4099
44.9457
44.4814
44.0172
43.5530
43.0888
42.6245
42.1603
41.6960
41.2318
40.7675
40.3032
39.8389
39.3746
38.9102
38.4458
37.9814
37.5170
37.0525
36.5880
36.1234
35.6588
35.1942
34.7295
34.2648
33.8000
33.3351
32.8702
32.4053
31.9402
31.4752
31.0101
30.5449
30.0797
29.6145
29.1492
28.6839
28.2187
27.7534
27.2882
26.8231
26.3580
25.8931
25.4283
24.9637
24.4994
24.0354
23.5717
23.1084
22.6457
22.1835
21.7219
21.2611
20.8011
20.3421
19.8841
19.4274
18.9720
18.5180
18.0657
17.6152
17.1666
16.7201
16.2760
15.8344
15.3956
14.9596
14.5268
14.0974
13.6716
13.2497
12.8318
12.4182
12.0092
11.6050
11.2059
10.8121
10.4238
10.0414
9.6649
9.2948
8.9311
8.5742
8.2241
7.8813
7.5457
7.2177
6.8973
6.5848
6.2802
5.9838
5.6955
5.4156
5.1440
4.8810
4.6264
4.3803
4.1428
3.9137
3.6932
3.4812
3.2775
3.0822
2.8951
2.7162
2.5452
2.3821
2.2268
2.0790
1.9386
1.8054
1.6793
1.5599
1.4472
1.3409
1.2408
1.1466
1.0582
0.9753
0.8977
0.8252
0.7575
0.6944
0.6357
0.5811
0.5305
0.4836
0.4402
0.4002
0.3633
0.3293
0.2981
0.2695
0.2432
0.2192
0.1973
0.1773
0.1591
0.1425
0.1275
0.1139
0.1016
0.0905
0.0805
0.0715
0.0634
0.0561
0.0496
0.0438
0.0386
0.0340
0.0299
0.0262
0.0229
0.0201
0.0175
0.0153
0.0133
0.0116
0.0100
0.0087
0.0075
0.0065
0.0056
0.0048
0.0041
0.0036
0.0031
0.0026
0.0022
0.0019
0.0016
0.0014
0.0012
0.0010
0.0008
0.0007
0.0006
0.0005
0.0004
0.0004
0.0003
0.0002
0.0002
0.0002
0.0001
0.0001
0.0001
0.0001
0.0001
0.0001
0.0000
0.0000
0.0000
0.0000
0.0000
0.0000
0.0000
0.0000
0.0000
0.0000
0.0000
0.0000
0.0000
0.0000
0.0000
0.0000
0.0000
0.0000
0.0000
0.0000
0.0000
0.0000
0.0000
0.0000
0.0000
0.0000
0.0000
0.0000
0.0000
0.0000
0.0000
0.0000
0.0000
0.0000
0.0000
0.0000
0.0000
0.0000
0.0000
77.2499
77.2499
78.1692
80.3917
84.0223
88.3014
91.3779
92.6314
92.3299
90.9996
89.1100
86.9913
84.8469
82.7897
80.8741
79.1200
77.5280
76.0881
74.7861
73.6061
72.5323
71.5501
70.6464
69.8096
69.0296
68.2976
67.6065
66.9497
66.3221
65.7191
65.1369
64.5723
64.0226
63.4856
62.9592
62.4419
61.9324
61.4294
60.9319
60.4393
59.9507
59.4655
58.9833
58.5036
58.0261
57.5505
57.0764
56.6037
56.1322
55.6617
55.1920
54.7231
54.2549
53.7872
53.3200
52.8532
52.3867
51.9206
51.4547
50.9890
50.5236
50.0583
49.5932
49.1282
48.6633
48.1985
47.7338
47.2692
46.8046
46.3401
45.8757
45.4112
44.9468
44.4825
44.0181
43.5538
43.0894
42.6251
42.1608
41.6965
41.2322
40.7679
40.3035
39.8392
39.3748
38.9104
38.4460
37.9816
37.5171
37.0526
36.5881
36.1235
35.6589
35.1943
34.7296
34.2648
33.8000
33.3352
32.8703
32.4053
31.9403
31.4752
31.0101
30.5449
30.0797
29.6145
29.1492
28.6839
28.2187
27.7534
27.2882
26.8231
26.3580
25.8931
25.4283
24.9637
24.4994
24.0354
23.5717
23.1084
22.6457
22.1835
21.7219
21.2611
20.8011
20.3421
19.8841
19.4274
18.9720
18.5180
18.0657
17.6152
17.1666
16.7201
16.2760
15.8344
15.3956
14.9596
14.5268
14.0974
13.6716
13.2497
12.8318
12.4182
12.0092
11.6050
11.2059
10.8121
10.4238
10.0414
9.6649
9.2948
8.9311
8.5742
8.2241
7.8813
7.5457
7.2177
6.8973
6.5848
6.2802
5.9838
5.6955
5.4156
5.1440
4.8810
4.6264
4.3803
4.1428
3.9137
3.6932
3.4812
3.2775
3.0822
2.8951
2.7162
2.5452
2.3821
2.2268
2.0790
1.9386
1.8054
1.6793
1.5599
1.4472
1.3409
1.2408
1.1466
1.0582
0.9753
0.8977
0.8252
0.7575
0.6944
0.6357
0.5811
0.5305
0.4836
0.4402
0.4002
0.3633
0.3293
0.2981
0.2695
0.2432
0.2192
0.1973
0.1773
0.1591
0.1425
0.1275
0.1139
0.1016
0.0905
0.0805
0.0715
0.0634
0.0561
0.0496
0.0438
0.0386
0.0340
0.0299
0.0262
0.0229
0.0201
0.0175
0.0153
0.0133
0.0116
0.0100
0.0087
0.0075
0.0065
0.0056
0.0048
0.0041
0.0036
0.0031
0.0026
0.0022
0.0019
0.0016
0.0014
0.0012
0.0010
0.0008
0.0007
0.0006
0.0005
0.0004
0.0004
0.0003
0.0002
0.0002
0.0002
0.0001
0.0001
0.0001
0.0001
0.0001
0.0001
0.0000
0.0000
0.0000
0.0000
0.0000
0.0000
0.0000
0.0000
0.0000
0.0000
0.0000
0.0000
0.0000
0.0000
0.0000
0.0000
0.0000
0.0000
0.0000
0.0000
0.0000
0.0000
0.0000
0.0000
0.0000
0.0000
0.0000
0.0000
0.0000
0.0000
0.0000
0.0000
0.0000
0.0000
0.0000
0.0000
0.0000
0.0000
0.0000
84.7731
84.7731
86.8431
92.0550
101.0471
111.8245
117.2078
117.3240
114.2683
109.7858
104.9227
100.2108
95.8819
92.0107
88.5958
85.6026
82.9839
80.6910
78.6778
76.9030
75.3305
73.9289
72.6718
71.5365
70.5039
69.5579
68.6850
67.8737
67.1145
66.3994
65.7215
65.0751
64.4555
63.8585
63.2808
62.7195
62.1721
61.6365
61.1111
60.5944
60.0850
59.5819
59.0843
58.5913
58.1022
57.6166
57.1339
56.6537
56.1757
55.6995
55.2250
54.7519
54.2799
53.8090
53.3390
52.8698
52.4012
51.9333
51.4658
50.9987
50.5321
50.0657
49.5997
49.1339
48.6683
48.2029
47.7377
47.2726
46.8076
46.3427
45.8779
45.4132
44.9486
44.4840
44.0195
43.5550
43.0905
42.6260
42.1616
41.6972
41.2328
40.7684
40.3040
39.8396
39.3752
38.9108
38.4463
37.9818
37.5174
37.0528
36.5883
36.1237
35.6591
35.1944
34.7297
34.2649
33.8001
33.3352
32.8703
32.4053
31.9403
31.4752
31.0101
30.5450
30.0797
29.6145
29.1492
28.6840
28.2187
27.7534
27.2882
26.8231
26.3580
25.8931
25.4283
24.9638
24.4994
24.0354
23.5717
23.1084
22.6457
22.1835
21.7219
21.2611
20.8011
20.3421
19.8841
19.4274
18.9720
18.5180
18.0657
17.6152
17.1666
16.7201
16.2760
15.8344
15.3956
14.9596
14.5268
14.0974
13.6716
13.2497
12.8318
12.4182
12.0092
11.6050
11.2059
10.8121
10.4238
10.0414
9.6649
9.2948
8.9311
8.5742
8.2241
7.8813
7.5457
7.2177
6.8973
6.5848
6.2802
5.9838
5.6955
5.4156
5.1440
4.8810
4.6264
4.3803
4.1428
3.9137
3.6932
3.4812
3.2775
3.0822
2.8951
2.7162
2.5452
2.3821
2.2268
2.0790
1.9386
1.8054
1.6793
1.5599
1.4472
1.3409
1.2408
1.1466
1.0582
0.9753
0.8977
0.8252
0.7575
0.6944
0.6357
0.5811
0.5305
0.4836
0.4402
0.4002
0.3633
0.3293
0.2981
0.2695
0.2432
0.2192
0.1973
0.1773
0.1591
0.1425
0.1275
0.1139
0.1016
0.0905
0.0805
0.0715
0.0634
0.0561
0.0496
0.0438
0.0386
0.0340
0.0299
0.0262
0.0229
0.0201
0.0175
0.0153
0.0133
0.0116
0.0100
0.0087
0.0075
0.0065
0.0056
0.0048
0.0041
0.0036
0.0031
0.0026
0.0022
0.0019
0.0016
0.0014
0.0012
0.0010
0.0008
0.0007
0.0006
0.0005
0.0004
0.0004
0.0003
0.0002
0.0002
0.0002
0.0001
0.0001
0.0001
0.0001
0.0001
0.0001
0.0000
0.0000
0.0000
0.0000
0.0000
0.0000
0.0000
0.0000
0.0000
0.0000
0.0000
0.0000
0.0000
0.0000
0.0000
0.0000
0.0000
0.0000
0.0000
0.0000
0.0000
0.0000
0.0000
0.0000
0.0000
0.0000
0.0000
0.0000
0.0000
0.0000
0.0000
0.0000
0.0000
0.0000
0.0000
0.0000
0.0000
0.0000
0.0000
95.8743
95.8743
100.3000
112.1989
135.0118
165.3237
170.7042
163.0594
151.3138
139.3951
128.6547
119.3911
111.5291
104.8863
99.2697
94.5060
90.4484
86.9756
83.9875
81.4023
79.1525
77.1826
75.4468
73.9071
72.5321
71.2954
70.1753
69.1535
68.2147
67.3460
66.5367
65.7779
65.0617
64.3820
63.7331
63.1106
62.5105
61.9296
61.3650
60.8145
60.2760
59.7477
59.2283
58.7164
58.2110
57.7112
57.2163
56.7254
56.2382
55.7540
55.2725
54.7933
54.3161
53.8406
53.3666
52.8939
52.4223
51.9517
51.4819
51.0129
50.5444
50.0766
49.6092
49.1422
48.6756
48.2093
47.7433
47.2775
46.8119
46.3465
45.8813
45.4161
44.9511
44.4862
44.0214
43.5567
43.0920
42.6274
42.1628
41.6982
41.2337
40.7692
40.3047
39.8402
39.3757
38.9112
38.4467
37.9822
37.5177
37.0531
36.5885
36.1239
35.6593
35.1946
34.7298
34.2651
33.8002
33.3353
32.8704
32.4054
31.9404
31.4753
31.0102
30.5450
30.0798
29.6145
29.1493
28.6840
28.2187
27.7535
27.2883
26.8231
26.3581
25.8931
25.4283
24.9638
24.4994
24.0354
23.5717
23.1085
22.6457
22.1835
21.7219
21.2611
20.8011
20.3421
19.8841
19.4274
18.9720
18.5180
18.0657
17.6152
17.1666
16.7201
16.2760
15.8344
15.3956
14.9596
14.5268
14.0974
13.6716
13.2497
12.8318
12.4182
12.0092
11.6050
11.2059
10.8121
10.4238
10.0414
9.6649
9.2948
8.9311
8.5742
8.2241
7.8813
7.5457
7.2177
6.8973
6.5848
6.2802
5.9838
5.6955
5.4156
5.1440
4.8810
4.6264
4.3803
4.1428
3.9137
3.6932
3.4812
3.2775
3.0822
2.8951
2.7162
2.5452
2.3821
2.2268
2.0790
1.9386
1.8054
1.6793
1.5599
1.4472
1.3409
1.2408
1.1466
1.0582
0.9753
0.8977
0.8252
0.7575
0.6944
0.6357
0.5811
0.5305
0.4836
0.4402
0.4002
0.3633
0.3293
0.2981
0.2695
0.2432
0.2192
0.1973
0.1773
0.1591
0.1425
0.1275
0.1139
0.1016
0.0905
0.0805
0.0715
0.0634
0.0561
0.0496
0.0438
0.0386
0.0340
0.0299
0.0262
0.0229
0.0201
0.0175
0.0153
0.0133
0.0116
0.0100
0.0087
0.0075
0.0065
0.0056
0.0048
0.0041
0.0036
0.0031
0.0026
0.0022
0.0019
0.0016
0.0014
0.0012