# vtk DataFile Version 5.0
Example 3D regular grid VTK file.
ASCII
DATASET UNSTRUCTURED_GRID
POINTS 90601 float
0 0 0
0 10 0
0 20 0
0 30 0
0 40 0
0 50 0
0 60 0
0 70 0
0 80 0
0 90 0
0 100 0
0 110 0
0 120 0
0 130 0
0 140 0
0 150 0
0 160 0
0 170 0
0 180 0
0 190 0
0 200 0
0 210 0
0 220 0
0 230 0
0 240 0
0 250 0
0 260 0
0 270 0
0 280 0
0 290 0
0 300 0
0 310 0
0 320 0
0 330 0
0 340 0
0 350 0
0 360 0
0 370 0
0 380 0
0 390 0
0 400 0
0 410 0
0 420 0
0 430 0
0 440 0
0 450 0
0 460 0
0 470 0
0 480 0
0 490 0
0 500 0
0 510 0
0 520 0
0 530 0
0 540 0
0 550 0
0 560 0
0 570 0
0 580 0
0 590 0
0 600 0
0 610 0
0 620 0
0 630 0
0 640 0
0 650 0
0 660 0
0 670 0
0 680 0
0 690 0
0 700 0
0 710 0
0 720 0
0 730 0
0 740 0
0 750 0
0 760 0
0 770 0
0 780 0
0 790 0
0 800 0
0 810 0
0 820 0
0 830 0
0 840 0
0 850 0
0 860 0
0 870 0
0 880 0
0 890 0
0 900 0
0 910 0
0 920 0
0 930 0
0 940 0
0 950 0
0 960 0
0 970 0
0 980 0
0 990 0
0 1000 0
0 1010 0
0 1020 0
0 1030 0
0 1040 0
0 1050 0
0 1060 0
0 1070 0
0 1080 0
0 1090 0
0 1100 0
0 1110 0
0 1120 0
0 1130 0
0 1140 0
0 1150 0
0 1160 0
0 1170 0
0 1180 0
0 1190 0
0 1200 0
0 1210 0
0 1220 0
0 1230 0
0 1240 0
0 1250 0
0 1260 0
0 1270 0
0 1280 0
0 1290 0
0 1300 0
0 1310 0
0 1320 0
0 1330 0
0 1340 0
0 1350 0
0 1360 0
0 1370 0
0 1380 0
0 1390 0
0 1400 0
0 1410 0
0 1420 0
0 1430 0
0 1440 0
0 1450 0
0 1460 0
0 1470 0
0 1480 0
0 1490 0
0 1500 0
0 1510 0
0 1520 0
0 1530 0
0 1540 0
0 1550 0
0 1560 0
0 1570 0
0 1580 0
0 1590 0
0 1600 0
0 1610 0
0 1620 0
0 1630 0
0 1640 0
0 1650 0
0 1660 0
0 1670 0
0 1680 0
0 1690 0
0 1700 0
0 1710 0
0 1720 0
0 1730 0
0 1740 0
0 1750 0
0 1760 0
0 1770 0
0 1780 0
0 1790 0
0 1800 0
0 1810 0
0 1820 0
0 1830 0
0 1840 0
0 1850 0
0 1860 0
0 1870 0
0 1880 0
0 1890 0
0 1900 0
0 1910 0
0 1920 0
0 1930 0
0 1940 0
0 1950 0
0 1960 0
0 1970 0
0 1980 0
0 1990 0
0 2000 0
0 2010 0
0 2020 0
0 2030 0
0 2040 0
0 2050 0
0 2060 0
0 2070 0
0 2080 0
0 2090 0
0 2100 0
0 2110 0
0 2120 0
0 2130 0
0 2140 0
0 2150 0
0 2160 0
0 2170 0
0 2180 0
0 2190 0
0 2200 0
0 2210 0
0 2220 0
0 2230 0
0 2240 0
0 2250 0
0 2260 0
0 2270 0
0 2280 0
0 2290 0
0 2300 0
0 2310 0
0 2320 0
0 2330 0
0 2340 0
0 2350 0
0 2360 0
0 2370 0
0 2380 0
0 2390 0
0 2400 0
0 2410 0
0 2420 0
0 2430 0
0 2440 0
0 2450 0
0 2460 0
0 2470 0
0 2480 0
0 2490 0
0 2500 0
0 2510 0
0 2520 0
0 2530 0
0 2540 0
0 2550 0
0 2560 0
0 2570 0
0 2580 0
0 2590 0
0 2600 0
0 2610 0
0 2620 0
0 2630 0
0 2640 0
0 2650 0
0 2660 0
0 2670 0
0 2680 0
0 2690 0
0 2700 0
0 2710 0
0 2720 0
0 2730 0
0 2740 0
0 2750 0
0 2760 0
0 2770 0
0 2780 0
0 2790 0
0 2800 0
0 2810 0
0 2820 0
0 2830 0
0 2840 0
0 2850 0
0 2860 0
0 2870 0
0 2880 0
0 2890 0
0 2900 0
0 2910 0
0 2920 0
0 2930 0
0 2940 0
0 2950 0
0 2960 0
0 2970 0
0 2980 0
0 2990 0
0 3000 0
10 0 0
10 10 0
10 20 0
10 30 0
10 40 0
10 50 0
10 60 0
10 70 0
10 80 0
10 90 0
10 100 0
10 110 0
10 120 0
10 130 0
10 140 0
10 150 0
10 160 0
10 170 0
10 180 0
10 190 0
10 200 0
10 210 0
10 220 0
10 230 0
10 240 0
10 250 0
10 260 0
10 270 0
10 280 0
10 290 0
10 300 0
10 310 0
10 320 0
10 330 0
10 340 0
10 350 0
10 360 0
10 370 0
10 380 0
10 390 0
10 400 0
10 410 0
10 420 0
10 430 0
10 440 0
10 450 0
10 460 0
10 470 0
10 480 0
10 490 0
10 500 0
10 510 0
10 520 0
10 530 0
10 540 0
10 550 0
10 560 0
10 570 0
10 580 0
10 590 0
10 600 0
10 610 0
10 620 0
10 630 0
10 640 0
10 650 0
10 660 0
10 670 0
10 680 0
10 690 0
10 700 0
10 710 0
10 720 0
10 730 0
10 740 0
10 750 0
10 760 0
10 770 0
10 780 0
10 790 0
10 800 0
10 810 0
10 820 0
10 830 0
10 840 0
10 850 0
10 860 0
10 870 0
10 880 0
10 890 0
10 900 0
10 910 0
10 920 0
10 930 0
10 940 0
10 950 0
10 960 0
10 970 0
10 980 0
10 990 0
10 1000 0
10 1010 0
10 1020 0
10 1030 0
10 1040 0
10 1050 0
10 1060 0
10 1070 0
10 1080 0
10 1090 0
10 1100 0
10 1110 0
10 1120 0
10 1130 0
10 1140 0
10 1150 0
10 1160 0
10 1170 0
10 1180 0
10 1190 0
10 1200 0
10 1210 0
10 1220 0
10 1230 0
10 1240 0
10 1250 0
10 1260 0
10 1270 0
10 1280 0
10 1290 0
10 1300 0
10 1310 0
10 1320 0
10 1330 0
10 1340 0
10 1350 0
10 1360 0
10 1370 0
10 1380 0
10 1390 0
10 1400 0
10 1410 0
10 1420 0
10 1430 0
10 1440 0
10 1450 0
10 1460 0
10 1470 0
10 1480 0
10 1490 0
10 1500 0
10 1510 0
10 1520 0
10 1530 0
10 1540 0
10 1550 0
10 1560 0
10 1570 0
10 1580 0
10 1590 0
10 1600 0
10 1610 0
10 1620 0
10 1630 0
10 1640 0
10 1650 0
10 1660 0
10 1670 0
10 1680 0
10 1690 0
10 1700 0
10 1710 0
10 1720 0
10 1730 0
10 1740 0
10 1750 0
10 1760 0
10 1770 0
10 1780 0
10 1790 0
10 1800 0
10 1810 0
10 1820 0
10 1830 0
10 1840 0
10 1850 0
10 1860 0
10 1870 0
10 1880 0
10 1890 0
10 1900 0
10 1910 0
10 1920 0
10 1930 0
10 1940 0
10 1950 0
10 1960 0
10 1970 0
10 1980 0
10 1990 0
10 2000 0
10 2010 0
10 2020 0
10 2030 0
10 2040 0
10 2050 0
10 2060 0
10 2070 0
10 2080 0
10 2090 0
10 2100 0
10 2110 0
10 2120 0
10 2130 0
10 2140 0
10 2150 0
10 2160 0
10 2170 0
10 2180 0
10 2190 0
10 2200 0
10 2210 0
10 2220 0
10 2230 0
10 2240 0
10 2250 0
10 2260 0
10 2270 0
10 2280 0
10 2290 0
10 2300 0
10 2310 0
10 2320 0
10 2330 0
10 2340 0
10 2350 0
10 2360 0
10 2370 0
10 2380 0
10 2390 0
10 2400 0
10 2410 0
10 2420 0
10 2430 0
10 2440 0
10 2450 0
10 2460 0
10 2470 0
10 2480 0
10 2490 0
10 2500 0
10 2510 0
10 2520 0
10 2530 0
10 2540 0
10 2550 0
10 2560 0
10 2570 0
10 2580 0
10 2590 0
10 2600 0
10 2610 0
10 2620 0
10 2630 0
10 2640 0
10 2650 0
10 2660 0
10 2670 0
10 2680 0
10 2690 0
10 2700 0
10 2710 0
10 2720 0
10 2730 0
10 2740 0
10 2750 0
10 2760 0
10 2770 0
10 2780 0
10 2790 0
10 2800 0
10 2810 0
10 2820 0
10 2830 0
10 2840 0
10 2850 0
10 2860 0
10 2870 0
10 2880 0
10 2890 0
10 2900 0
10 2910 0
10 2920 0
10 2930 0
10 2940 0
10 2950 0
10 2960 0
10 2970 0
10 2980 0
10 2990 0
10 3000 0
20 0 0
20 10 0
20 20 0
20 30 0
20 40 0
20 50 0
20 60 0
20 70 0
20 80 0
20 90 0
20 100 0
20 110 0
20 120 0
20 130 0
20 140 0
20 150 0
20 160 0
20 170 0
20 180 0
20 190 0
20 200 0
20 210 0
20 220 0
20 230 0
20 240 0
20 250 0
20 260 0
20 270 0
20 280 0
20 290 0
20 300 0
20 310 0
20 320 0
20 330 0
20 340 0
20 350 0
20 360 0
20 370 0
20 380 0
20 390 0
20 400 0
20 410 0
20 420 0
20 430 0
20 440 0
20 450 0
20 460 0
20 470 0
20 480 0
20 490 0
20 500 0
20 510 0
20 520 0
20 530 0
20 540 0
20 550 0
20 560 0
20 570 0
20 580 0
20 590 0
20 600 0
20 610 0
20 620 0
20 630 0
20 640 0
20 650 0
20 660 0
20 670 0
20 680 0
20 690 0
20 700 0
20 710 0
20 720 0
20 730 0
20 740 0
20 750 0
20 760 0
20 770 0
20 780 0
20 790 0
20 800 0
20 810 0
20 820 0
20 830 0
20 840 0
20 850 0
20 860 0
20 870 0
20 880 0
20 890 0
20 900 0
20 910 0
20 920 0
20 930 0
20 940 0
20 950 0
20 960 0
20 970 0
20 980 0
20 990 0
20 1000 0
20 1010 0
20 1020 0
20 1030 0
20 1040 0
20 1050 0
20 1060 0
20 1070 0
20 1080 0
20 1090 0
20 1100 0
20 1110 0
20 1120 0
20 1130 0
20 1140 0
20 1150 0
20 1160 0
20 1170 0
20 1180 0
20 1190 0
20 1200 0
20 1210 0
20 1220 0
20 1230 0
20 1240 0
20 1250 0
20 1260 0
20 1270 0
20 1280 0
20 1290 0
20 1300 0
20 1310 0
20 1320 0
20 1330 0
20 1340 0
20 1350 0
20 1360 0
20 1370 0
20 1380 0
20 1390 0
20 1400 0
20 1410 0
20 1420 0
20 1430 0
20 1440 0
20 1450 0
20 1460 0
20 1470 0
20 1480 0
20 1490 0
20 1500 0
20 1510 0
20 1520 0
20 1530 0
20 1540 0
20 1550 0
20 1560 0
20 1570 0
20 1580 0
20 1590 0
20 1600 0
20 1610 0
20 1620 0
20 1630 0
20 1640 0
20 1650 0
20 1660 0
20 1670 0
20 1680 0
20 1690 0
20 1700 0
20 1710 0
20 1720 0
20 1730 0
20 1740 0
20 1750 0
20 1760 0
20 1770 0
20 1780 0
20 1790 0
20 1800 0
20 1810 0
20 1820 0
20 1830 0
20 1840 0
20 1850 0
20 1860 0
20 1870 0
20 1880 0
20 1890 0
20 1900 0
20 1910 0
20 1920 0
20 1930 0
20 1940 0
20 1950 0
20 1960 0
20 1970 0
20 1980 0
20 1990 0
20 2000 0
20 2010 0
20 2020 0
20 2030 0
20 2040 0
20 2050 0
20 2060 0
20 2070 0
20 2080 0
20 2090 0
20 2100 0
20 2110 0
20 2120 0
20 2130 0
20 2140 0
20 2150 0
20 2160 0
20 2170 0
20 2180 0
20 2190 0
20 2200 0
20 2210 0
20 2220 0
20 2230 0
20 2240 0
20 2250 0
20 2260 0
20 2270 0
20 2280 0
20 2290 0
20 2300 0
20 2310 0
20 2320 0
20 2330 0
20 2340 0
20 2350 0
20 2360 0
20 2370 0
20 2380 0
20 2390 0
20 2400 0
20 2410 0
20 2420 0
20 2430 0
20 2440 0
20 2450 0
20 2460 0
20 2470 0
20 2480 0
20 2490 0
20 2500 0
20 2510 0
20 2520 0
20 2530 0
20 2540 0
20 2550 0
20 2560 0
20 2570 0
20 2580 0
20 2590 0
20 2600 0
20 2610 0
20 2620 0
20 2630 0
20 2640 0
20 2650 0
20 2660 0
20 2670 0
20 2680 0
20 2690 0
20 2700 0
20 2710 0
20 2720 0
20 2730 0
20 2740 0
20 2750 0
20 2760 0
20 2770 0
20 2780 0
20 2790 0
20 2800 0
20 2810 0
20 2820 0
20 2830 0
20 2840 0
20 2850 0
20 2860 0
20 2870 0
20 2880 0
20 2890 0
20 2900 0
20 2910 0
20 2920 0
20 2930 0
20 2940 0
20 2950 0
20 2960 0
20 2970 0
20 2980 0
20 2990 0
20 3000 0
30 0 0
30 10 0
30 20 0
30 30 0
30 40 0
30 50 0
30 60 0
30 70 0
30 80 0
30 90 0
30 100 0
30 110 0
30 120 0
30 130 0
30 140 0
30 150 0
30 160 0
30 170 0
30 180 0
30 190 0
30 200 0
30 210 0
30 220 0
30 230 0
30 240 0
30 250 0
30 260 0
30 270 0
30 280 0
30 290 0
30 300 0
30 310 0
30 320 0
30 330 0
30 340 0
30 350 0
30 360 0
30 370 0
30 380 0
30 390 0
30 400 0
30 410 0
30 420 0
30 430 0
30 440 0
30 450 0
30 460 0
30 470 0
30 480 0
30 490 0
30 500 0
30 510 0
30 520 0
30 530 0
30 540 0
30 550 0
30 560 0
30 570 0
30 580 0
30 590 0
30 600 0
30 610 0
30 620 0
30 630 0
30 640 0
30 650 0
30 660 0
30 670 0
30 680 0
30 690 0
30 700 0
30 710 0
30 720 0
30 730 0
30 740 0
30 750 0
30 760 0
30 770 0
30 780 0
30 790 0
30 800 0
30 810 0
30 820 0
30 830 0
30 840 0
30 850 0
30 860 0
30 870 0
30 880 0
30 890 0
30 900 0
30 910 0
30 920 0
30 930 0
30 940 0
30 950 0
30 960 0
30 970 0
30 980 0
30 990 0
30 1000 0
30 1010 0
30 1020 0
30 1030 0
30 1040 0
30 1050 0
30 1060 0
30 1070 0
30 1080 0
30 1090 0
30 1100 0
30 1110 0
30 1120 0
30 1130 0
30 1140 0
30 1150 0
30 1160 0
30 1170 0
30 1180 0
30 1190 0
30 1200 0
30 1210 0
30 1220 0
30 1230 0
30 1240 0
30 1250 0
30 1260 0
30 1270 0
30 1280 0
30 1290 0
30 1300 0
30 1310 0
30 1320 0
30 1330 0
30 1340 0
30 1350 0
30 1360 0
30 1370 0
30 1380 0
30 1390 0
30 1400 0
30 1410 0
30 1420 0
30 1430 0
30 1440 0
30 1450 0
30 1460 0
30 1470 0
30 1480 0
30 1490 0
30 1500 0
30 1510 0
30 1520 0
30 1530 0
30 1540 0
30 1550 0
30 1560 0
30 1570 0
30 1580 0
30 1590 0
[...]
POINT_DATA 90601
SCALARS P float
LOOKUP_TABLE default
71.7442
71.7442
71.7811
71.8692
72.0172
72.2239
72.4770
72.7557
73.0354
73.2934
73.5112
73.6764
73.7822
73.8265
73.8105
73.7378
73.6131
73.4417
73.2291
72.9805
72.7006
72.3938
72.0640
71.7144
71.3480
70.9672
70.5743
70.1710
69.7588
69.3391
68.9130
68.4815
68.0453
67.6052
67.1617
66.7153
66.2664
65.8154
65.3626
64.9083
64.4526
63.9958
63.5379
63.0793
62.6199
62.1599
61.6993
61.2383
60.7768
60.3150
59.8530
59.3906
58.9280
58.4653
58.0023
57.5392
57.0760
56.6127
56.1492
55.6857
55.2221
54.7585
54.2948
53.8310
53.3672
52.9034
52.4395
51.9756
51.5117
51.0477
50.5837
50.1198
49.6557
49.1917
48.7277
48.2636
47.7996
47.3355
46.8714
46.4073
45.9432
45.4791
45.0150
44.5509
44.0867
43.6226
43.1584
42.6942
42.2300
41.7657
41.3015
40.8372
40.3729
39.9086
39.4443
38.9799
38.5155
38.0511
37.5866
37.1221
36.6576
36.1930
35.7284
35.2637
34.7990
34.3343
33.8695
33.4047
32.9398
32.4749
32.0099
31.5450
31.0800
30.6150
30.1499
29.6849
29.2199
28.7550
28.2901
27.8253
27.3606
26.8960
26.4316
25.9673
25.5034
25.0397
24.5763
24.1134
23.6509
23.1890
22.7276
22.2670
21.8071
21.3481
20.8901
20.4332
19.9774
19.5231
19.0701
18.6188
18.1693
17.7217
17.2761
16.8329
16.3920
15.9538
15.5184
15.0861
14.6569
14.2312
13.8092
13.3911
12.9770
12.5673
12.1621
11.7617
11.3663
10.9762
10.5915
10.2126
9.8395
9.4725
9.1119
8.7578
8.4105
8.0701
7.7367
7.4107
7.0920
6.7809
6.4775
6.1819
5.8942
5.6145
5.3428
5.0793
4.8240
4.5769
4.3380
4.1073
3.8848
3.6705
3.4643
3.2661
3.0759
2.8936
2.7191
2.5522
2.3928
2.2408
2.0960
1.9584
1.8276
1.7035
1.5859
1.4747
1.3696
1.2705
1.1770
1.0891
1.0066
0.9291
0.8565
0.7885
0.7250
0.6658
0.6107
0.5593
0.5116
0.4674
0.4264
0.3886
0.3536
0.3213
0.2916
0.2642
0.2391
0.2161
0.1951
0.1758
0.1583
0.1423
0.1277
0.1145
0.1025
0.0916
0.0818
0.0729
0.0649
0.0577
0.0512
0.0454
0.0402
0.0355
0.0313
0.0276
0.0243
0.0213
0.0187
0.0164
0.0144
0.0125
0.0109
0.0095
0.0083
0.0072
0.0062
0.0054
0.0047
0.0040
0.0035
0.0030
0.0026
0.0022
0.0019
0.0016
0.0014
0.0012
0.0010
0.0009
0.0007
0.0006
0.0005
0.0004
0.0004
0.0003
0.0003
0.0002
0.0002
0.0002
0.0001
0.0001
0.0001
0.0001
0.0001
0.0001
0.0000
0.0000
0.0000
0.0000
0.0000
0.0000
0.0000
0.0000
0.0000
0.0000
0.0000
0.0000
0.0000
0.0000
0.0000
0.0000
0.0000
0.0000
0.0000
0.0000
0.0000
0.0000
0.0000
0.0000
0.0000
71.7442
71.7442
71.7811
71.8692
72.0172
72.2239
72.4770
72.7557
73.0354
73.2934
73.5112
73.6764
73.7822
73.8265
73.8105
73.7378
73.6131
73.4417
73.2291
72.9805
72.7006
72.3938
72.0640
71.7144
71.3480
70.9672
70.5743
70.1710
69.7588
69.3391
68.9130
68.4815
68.0453
67.6052
67.1617
66.7153
66.2664
65.8154
65.3626
64.9083
64.4526
63.9958
63.5379
63.0793
62.6199
62.1599
61.6993
61.2383
60.7768
60.3150
59.8530
59.3906
58.9280
58.4653
58.0023
57.5392
57.0760
56.6127
56.1492
55.6857
55.2221
54.7585
54.2948
53.8310
53.3672
52.9034
52.4395
51.9756
51.5117
51.0477
50.5837
50.1198
49.6557
49.1917
48.7277
48.2636
47.7996
47.3355
46.8714
46.4073
45.9432
45.4791
45.0150
44.5509
44.0867
43.6226
43.1584
42.6942
42.2300
41.7657
41.3015
40.8372
40.3729
39.9086
39.4443
38.9799
38.5155
38.0511
37.5866
37.1221
36.6576
36.1930
35.7284
35.2637
34.7990
34.3343
33.8695
33.4047
32.9398
32.4749
32.0099
31.5450
31.0800
30.6150
30.1499
29.6849
29.2199
28.7550
28.2901
27.8253
27.3606
26.8960
26.4316
25.9673
25.5034
25.0397
24.5763
24.1134
23.6509
23.1890
22.7276
22.2670
21.8071
21.3481
20.8901
20.4332
19.9774
19.5231
19.0701
18.6188
18.1693
17.7217
17.2761
16.8329
16.3920
15.9538
15.5184
15.0861
14.6569
14.2312
13.8092
13.3911
12.9770
12.5673
12.1621
11.7617
11.3663
10.9762
10.5915
10.2126
9.8395
9.4725
9.1119
8.7578
8.4105
8.0701
7.7367
7.4107
7.0920
6.7809
6.4775
6.1819
5.8942
5.6145
5.3428
5.0793
4.8240
4.5769
4.3380
4.1073
3.8848
3.6705
3.4643
3.2661
3.0759
2.8936
2.7191
2.5522
2.3928
2.2408
2.0960
1.9584
1.8276
1.7035
1.5859
1.4747
1.3696
1.2705
1.1770
1.0891
1.0066
0.9291
0.8565
0.7885
0.7250
0.6658
0.6107
0.5593
0.5116
0.4674
0.4264
0.3886
0.3536
0.3213
0.2916
0.2642
0.2391
0.2161
0.1951
0.1758
0.1583
0.1423
0.1277
0.1145
0.1025
0.0916
0.0818
0.0729
0.0649
0.0577
0.0512
0.0454
0.0402
0.0355
0.0313
0.0276
0.0243
0.0213
0.0187
0.0164
0.0144
0.0125
0.0109
0.0095
0.0083
0.0072
0.0062
0.0054
0.0047
0.0040
0.0035
0.0030
0.0026
0.0022
0.0019
0.0016
0.0014
0.0012
0.0010
0.0009
0.0007
0.0006
0.0005
0.0004
0.0004
0.0003
0.0003
0.0002
0.0002
0.0002
0.0001
0.0001
0.0001
0.0001
0.0001
0.0001
0.0000
0.0000
0.0000
0.0000
0.0000
0.0000
0.0000
0.0000
0.0000
0.0000
0.0000
0.0000
0.0000
0.0000
0.0000
0.0000
0.0000
0.0000
0.0000
0.0000
0.0000
0.0000
0.0000
0.0000
0.0000
72.0355
72.0355
72.0842
72.1998
72.3912
72.6518
72.9587
73.2798
73.5832
73.8441
74.0459
74.1807
74.2467
74.2462
74.1842
74.0665
73.8997
73.6899
73.4430
73.1641
72.8578
72.5282
72.1786
71.8122
71.4314
71.0384
70.6350
70.2228
69.8030
69.3769
68.9454
68.5092
68.0691
67.6255
67.1791
66.7303
66.2793
65.8265
65.3722
64.9165
64.4597
64.0019
63.5432
63.0838
62.6238
62.1633
61.7023
61.2408
60.7791
60.3170
59.8546
59.3921
58.9293
58.4664
58.0033
57.5401
57.0767
56.6133
56.1498
55.6862
55.2225
54.7588
54.2951
53.8313
53.3674
52.9036
52.4397
51.9758
51.5118
51.0478
50.5839
50.1199
49.6558
49.1918
48.7278
48.2637
47.7996
47.3356
46.8715
46.4074
45.9433
45.4792
45.0150
44.5509
44.0867
43.6226
43.1584
42.6942
42.2300
41.7658
41.3015
40.8372
40.3729
39.9086
39.4443
38.9799
38.5155
38.0511
37.5866
37.1221
36.6576
36.1930
35.7284
35.2637
34.7990
34.3343
33.8695
33.4047
32.9398
32.4749
32.0099
31.5450
31.0800
30.6150
30.1499
29.6849
29.2199
28.7550
28.2901
27.8253
27.3606
26.8960
26.4316
25.9673
25.5034
25.0397
24.5763
24.1134
23.6509
23.1890
22.7276
22.2670
21.8071
21.3481
20.8901
20.4332
19.9774
19.5231
19.0701
18.6188
18.1693
17.7217
17.2761
16.8329
16.3920
15.9538
15.5184
15.0861
14.6569
14.2312
13.8092
13.3911
12.9770
12.5673
12.1621
11.7617
11.3663
10.9762
10.5915
10.2126
9.8395
9.4725
9.1119
8.7578
8.4105
8.0701
7.7367
7.4107
7.0920
6.7809
6.4775
6.1819
5.8942
5.6145
5.3428
5.0793
4.8240
4.5769
4.3380
4.1073
3.8848
3.6705
3.4643
3.2661
3.0759
2.8936
2.7191
2.5522
2.3928
2.2408
2.0960
1.9584
1.8276
1.7035
1.5859
1.4747
1.3696
1.2705
1.1770
1.0891
1.0066
0.9291
0.8565
0.7885
0.7250
0.6658
0.6107
0.5593
0.5116
0.4674
0.4264
0.3886
0.3536
0.3213
0.2916
0.2642
0.2391
0.2161
0.1951
0.1758
0.1583
0.1423
0.1277
0.1145
0.1025
0.0916
0.0818
0.0729
0.0649
0.0577
0.0512
0.0454
0.0402
0.0355
0.0313
0.0276
0.0243
0.0213
0.0187
0.0164
0.0144
0.0125
0.0109
0.0095
0.0083
0.0072
0.0062
0.0054
0.0047
0.0040
0.0035
0.0030
0.0026
0.0022
0.0019
0.0016
0.0014
0.0012
0.0010
0.0009
0.0007
0.0006
0.0005
0.0004
0.0004
0.0003
0.0003
0.0002
0.0002
0.0002
0.0001
0.0001
0.0001
0.0001
0.0001
0.0001
0.0000
0.0000
0.0000
0.0000
0.0000
0.0000
0.0000
0.0000
0.0000
0.0000
0.0000
0.0000
0.0000
0.0000
0.0000
0.0000
0.0000
0.0000
0.0000
0.0000
0.0000
0.0000
0.0000
0.0000
0.0000
72.8121
72.8121
72.8975
73.0983
73.4240
73.8485
74.3119
74.7471
75.1038
75.3557
75.4967
75.5341
75.4809
75.3522
75.1618
74.9219
74.6422
74.3307
73.9936
73.6358
73.2610
72.8724
72.4723
72.0626
71.6449
71.2205
70.7903
70.3554
69.9163
69.4737
69.0282
68.5801
68.1298
67.6777
67.2239
66.7687
66.3124
65.8550
65.3967
64.9376
64.4779
64.0176
63.5568
63.0956
62.6340
62.1721
61.7099
61.2475
60.7848
60.3220
59.8590
59.3958
58.9326
58.4692
58.0057
57.5422
57.0786
56.6149
56.1512
55.6874
55.2236
54.7598
54.2959
53.8320
53.3681
52.9041
52.4402
51.9762
51.5122
51.0482
50.5841
50.1201
49.6561
49.1920
48.7279
48.2639
47.7998
47.3357
46.8716
46.4075
45.9434
45.4792
45.0151
44.5509
44.0868
43.6226
43.1584
42.6942
42.2300
41.7658
41.3015
40.8373
40.3730
39.9086
39.4443
38.9799
38.5155
38.0511
37.5866
37.1221
36.6576
36.1930
35.7284
35.2637
34.7990
34.3343
33.8695
33.4047
32.9398
32.4749
32.0099
31.5450
31.0800
30.6150
30.1499
29.6849
29.2199
28.7550
28.2901
27.8253
27.3606
26.8960
26.4316
25.9673
25.5034
25.0397
24.5763
24.1134
23.6509
23.1890
22.7276
22.2670
21.8071
21.3481
20.8901
20.4332
19.9774
19.5231
19.0701
18.6188
18.1693
17.7217
17.2761
16.8329
16.3920
15.9538
15.5184
15.0861
14.6569
14.2312
13.8092
13.3911
12.9770
12.5673
12.1621
11.7617
11.3663
10.9762
10.5915
10.2126
9.8395
9.4725
9.1119
8.7578
8.4105
8.0701
7.7367
7.4107
7.0920
6.7809
6.4775
6.1819
5.8942
5.6145
5.3428
5.0793
4.8240
4.5769
4.3380
4.1073
3.8848
3.6705
3.4643
3.2661
3.0759
2.8936
2.7191
2.5522
2.3928
2.2408
2.0960
1.9584
1.8276
1.7035
1.5859
1.4747
1.3696
1.2705
1.1770
1.0891
1.0066
0.9291
0.8565
0.7885
0.7250
0.6658
0.6107
0.5593
0.5116
0.4674
0.4264
0.3886
0.3536
0.3213
0.2916
0.2642
0.2391
0.2161
0.1951
0.1758
0.1583
0.1423
0.1277
0.1145
0.1025
0.0916
0.0818
0.0729
0.0649
0.0577
0.0512
0.0454
0.0402
0.0355
0.0313
0.0276
0.0243
0.0213
0.0187
0.0164
0.0144
0.0125
0.0109
0.0095
0.0083
0.0072
0.0062
0.0054
0.0047
0.0040
0.0035
0.0030
0.0026
0.0022
0.0019
0.0016
0.0014
0.0012
0.0010
0.0009
0.0007
0.0006
0.0005
0.0004
0.0004
0.0003
0.0003
0.0002
0.0002
0.0002
0.0001
0.0001
0.0001
0.0001
0.0001
0.0001
0.0000
0.0000
0.0000
0.0000
0.0000
0.0000
0.0000
0.0000
0.0000
0.0000
0.0000
0.0000
0.0000
0.0000
0.0000
0.0000
0.0000
0.0000
0.0000
0.0000
0.0000
0.0000
0.0000
0.0000
0.0000
74.3805
74.3805
74.5589
74.9774
75.6465
76.4810
77.3059
77.9666
78.3849
78.5532
78.5050
78.2894
77.9541
77.5390
77.0740
76.5802
76.0719
75.5581
75.0441
74.5331
74.0265
73.5249
73.0284
72.5365
72.0489
71.5650
71.0843
70.6064
70.1309
69.6573
69.1853
68.7147
68.2452
67.7767
67.3090
66.8419
66.3753
65.9092
65.4434
64.9779
64.5127
64.0477
63.5828
63.1181
62.6535
62.1890
61.7245
61.2601
60.7958
60.3315
59.8673
59.4030
58.9388
58.4747
58.0105
57.5464
57.0822
56.6181
56.1540
55.6898
55.2257
54.7616
54.2975
53.8334
53.3693
52.9052
52.4411
51.9770
51.5129
51.0488
50.5847
50.1206
49.6565
49.1924
48.7283
48.2641
47.8000
47.3359
46.8718
46.4076
45.9435
45.4794
45.0152
44.5510
44.0869
43.6227
43.1585
42.6943
42.2301
41.7658
41.3016
40.8373
40.3730
39.9087
39.4443
38.9800
38.5155
38.0511
37.5866
37.1221
36.6576
36.1930
35.7284
35.2637
34.7990
34.3343
33.8695
33.4047
32.9398
32.4749
32.0099
31.5450
31.0800
30.6150
30.1499
29.6849
29.2200
28.7550
28.2901
27.8253
27.3606
26.8960
26.4316
25.9673
25.5034
25.0397
24.5763
24.1134
23.6509
23.1890
22.7276
22.2670
21.8071
21.3481
20.8901
20.4332
19.9774
19.5231
19.0701
18.6188
18.1693
17.7217
17.2761
16.8329
16.3920
15.9538
15.5184
15.0861
14.6569
14.2312
13.8092
13.3911
12.9770
12.5673
12.1621
11.7617
11.3663
10.9762
10.5915
10.2126
9.8395
9.4725
9.1119
8.7578
8.4105
8.0701
7.7367
7.4107
7.0920
6.7809
6.4775
6.1819
5.8942
5.6145
5.3428
5.0793
4.8240
4.5769
4.3380
4.1073
3.8848
3.6705
3.4643
3.2661
3.0759
2.8936
2.7191
2.5522
2.3928
2.2408
2.0960
1.9584
1.8276
1.7035
1.5859
1.4747
1.3696
1.2705
1.1770
1.0891
1.0066
0.9291
0.8565
0.7885
0.7250
0.6658
0.6107
0.5593
0.5116
0.4674
0.4264
0.3886
0.3536
0.3213
0.2916
0.2642
0.2391
0.2161
0.1951
0.1758
0.1583
0.1423
0.1277
0.1145
0.1025
0.0916
0.0818
0.0729
0.0649
0.0577
0.0512
0.0454
0.0402
0.0355
0.0313
0.0276
0.0243
0.0213
0.0187
0.0164
0.0144
0.0125
0.0109
0.0095
0.0083
0.0072
0.0062
0.0054
0.0047
0.0040
0.0035
0.0030
0.0026
0.0022
0.0019
0.0016
0.0014
0.0012
0.0010
0.0009
0.0007
0.0006
0.0005
0.0004
0.0004
0.0003
0.0003
0.0002
0.0002
0.0002
0.0001
0.0001
0.0001
0.0001
0.0001
0.0001
0.0000
0.0000
0.0000
0.0000
0.0000
0.0000
0.0000
0.0000
0.0000
0.0000
0.0000
0.0000
0.0000
0.0000
0.0000
0.0000
0.0000
0.0000
0.0000
0.0000
0.0000
0.0000
0.0000
0.0000
0.0000
77.2079
77.2079
77.6092
78.5586
80.0768
81.9026
83.4927
84.5003
84.8601
84.6751
84.1022
83.2885
82.3471
81.3565
80.3662
79.4048
78.4868
77.6182
76.7992
76.0273
75.2982
74.6074
73.9500
73.3216
72.7182
72.1359
71.5718
71.0229
70.4871
69.9622
69.4465
68.9387
68.4375
67.9419
67.4510
66.9641
66.4806
65.9999
65.5217
65.0455
64.5711
64.0982
63.6265
63.1559
62.6862
62.2174
61.7492
61.2815
60.8144
60.3477
59.8813
59.4153
58.9495
58.4839
58.0186
57.5534
57.0883
56.6234
56.1586
55.6939
55.2293
54.7647
54.3002
53.8358
53.3714
52.9070
52.4427
51.9784
51.5141
51.0499
50.5856
50.1214
49.6572
49.1930
48.7288
48.2646
47.8005
47.3363
46.8721
46.4079
45.9438
45.4796
45.0154
44.5512
44.0870
43.6228
43.1586
42.6944
42.2302
41.7659
41.3016
40.8374
40.3730
39.9087
39.4444
38.9800
38.5156
38.0511
37.5867
37.1222
36.6576
36.1930
35.7284
35.2638
34.7990
34.3343
33.8695
33.4047
32.9398
32.4749
32.0099
31.5450
31.0800
30.6150
30.1500
29.6849
29.2200
28.7550
28.2901
27.8253
27.3606
26.8960
26.4316
25.9673
25.5034
25.0397
24.5763
24.1134
23.6509
23.1890
22.7276
22.2670
21.8071
21.3481
20.8901
20.4332
19.9774
19.5231
19.0701
18.6188
18.1693
17.7217
17.2761
16.8329
16.3920
15.9538
15.5184
15.0861
14.6569
14.2312
13.8092
13.3911
12.9770
12.5673
12.1621
11.7617
11.3663
10.9762
10.5915
10.2126
9.8395
9.4725
9.1119
8.7578
8.4105
8.0701
7.7367
7.4107
7.0920
6.7809
6.4775
6.1819
5.8942
5.6145
5.3428
5.0793
4.8240
4.5769
4.3380
4.1073
3.8848
3.6705
3.4643
3.2661
3.0759
2.8936
2.7191
2.5522
2.3928
2.2408
2.0960
1.9584
1.8276
1.7035
1.5859
1.4747
1.3696
1.2705
1.1770
1.0891
1.0066
0.9291
0.8565
0.7885
0.7250
0.6658
0.6107
0.5593
0.5116
0.4674
0.4264
0.3886
0.3536
0.3213
0.2916
0.2642
0.2391
0.2161
0.1951
0.1758
0.1583
0.1423
0.1277
0.1145
0.1025
0.0916
0.0818
0.0729
0.0649
0.0577
0.0512
0.0454
0.0402
0.0355
0.0313
0.0276
0.0243
0.0213
0.0187
0.0164
0.0144
0.0125
0.0109
0.0095
0.0083
0.0072
0.0062
0.0054
0.0047
0.0040
0.0035
0.0030
0.0026
0.0022
0.0019
0.0016
0.0014
0.0012
0.0010
0.0009
0.0007
0.0006
0.0005
0.0004
0.0004
0.0003
0.0003
0.0002
0.0002
0.0002
0.0001
0.0001
0.0001
0.0001
0.0001
0.0001
0.0000
0.0000
0.0000
0.0000
0.0000
0.0000
0.0000
0.0000
0.0000
0.0000
0.0000
0.0000
0.0000
0.0000
0.0000
0.0000
0.0000
0.0000
0.0000
0.0000
0.0000
0.0000
0.0000
0.0000
0.0000
81.9612
81.9612
82.8805
85.1030
88.7336
93.0128
96.0892
97.3427
97.0412
95.7109
93.8213
91.7026
89.5582
87.5010
85.5854
83.8313
82.2393
80.7994
79.4974
78.3174
77.2436
76.2614
75.3577
74.5209
73.7409
73.0089
72.3178
71.6610
71.0334
70.4304
69.8482
69.2836
68.7339
68.1969
67.6705
67.1532
66.6437
66.1407
65.6432
65.1506
64.6620
64.1768
63.6946
63.2149
62.7374
62.2618
61.7877
61.3150
60.8435
60.3730
59.9034
59.4345
58.9662
58.4985
58.0313
57.5645
57.0980
56.6319
56.1660
55.7004
55.2349
54.7697
54.3045
53.8396
53.3747
52.9099
52.4452
51.9806
51.5161
51.0516
50.5871
50.1227
49.6584
49.1940
48.7297
48.2654
47.8011
47.3369
46.8726
46.4084
45.9442
45.4799
45.0157
44.5515
44.0873
43.6230
43.1588
42.6946
42.2303
41.7660
41.3018
40.8375
40.3731
39.9088
39.4444
38.9800
38.5156
38.0512
37.5867
37.1222
36.6577
36.1931
35.7284
35.2638
34.7991
34.3343
33.8695
33.4047
32.9398
32.4749
32.0100
31.5450
31.0800
30.6150
30.1500
29.6849
29.2200
28.7550
28.2901
27.8253
27.3606
26.8960
26.4316
25.9673
25.5034
25.0397
24.5763
24.1134
23.6509
23.1890
22.7276
22.2670
21.8071
21.3481
20.8901
20.4332
19.9774
19.5231
19.0701
18.6188
18.1693
17.7217
17.2761
16.8329
16.3920
15.9538
15.5184
15.0861
14.6569
14.2312
13.8092
13.3911
12.9770
12.5673
12.1621
11.7617
11.3663
10.9762
10.5915
10.2126
9.8395
9.4725
9.1119
8.7578
8.4105
8.0701
7.7367
7.4107
7.0920
6.7809
6.4775
6.1819
5.8942
5.6145
5.3428
5.0793
4.8240
4.5769
4.3380
4.1073
3.8848
3.6705
3.4643
3.2661
3.0759
2.8936
2.7191
2.5522
2.3928
2.2408
2.0960
1.9584
1.8276
1.7035
1.5859
1.4747
1.3696
1.2705
1.1770
1.0891
1.0066
0.9291
0.8565
0.7885
0.7250
0.6658
0.6107
0.5593
0.5116
0.4674
0.4264
0.3886
0.3536
0.3213
0.2916
0.2642
0.2391
0.2161
0.1951
0.1758
0.1583
0.1423
0.1277
0.1145
0.1025
0.0916
0.0818
0.0729
0.0649
0.0577
0.0512
0.0454
0.0402
0.0355
0.0313
0.0276
0.0243
0.0213
0.0187
0.0164
0.0144
0.0125
0.0109
0.0095
0.0083
0.0072
0.0062
0.0054
0.0047
0.0040
0.0035
0.0030
0.0026
0.0022
0.0019
0.0016
0.0014
0.0012
0.0010
0.0009
0.0007
0.0006
0.0005
0.0004
0.0004
0.0003
0.0003
0.0002
0.0002
0.0002
0.0001
0.0001
0.0001
0.0001
0.0001
0.0001
0.0000
0.0000
0.0000
0.0000
0.0000
0.0000
0.0000
0.0000
0.0000
0.0000
0.0000
0.0000
0.0000
0.0000
0.0000
0.0000
0.0000
0.0000
0.0000
0.0000
0.0000
0.0000
0.0000
0.0000
0.0000
89.4844
89.4844
91.5544
96.7663
105.7584
116.5358
121.9191
122.0354
118.9796
114.4971
109.6340
104.9221
100.5932
96.7220
93.3071
90.3139
87.6952
85.4023
83.3891
81.6143
80.0418
78.6402
77.3831
76.2478
75.2152
74.2692
73.3963
72.5850
71.8259
71.1107
70.4328
69.7864
69.1668
68.5698
67.9921
67.4308
66.8834
66.3478
65.8224
65.3057
64.7963
64.2932
63.7956
63.3026
62.8135
62.3279
61.8452
61.3650
60.8870
60.4109
59.9363
59.4632
58.9912
58.5203
58.0503
57.5811
57.1126
56.6446
56.1771
55.7101
55.2434
54.7771
54.3110
53.8453
53.3797
52.9143
52.4491
51.9840
51.5190
51.0542
50.5894
50.1247
49.6601
49.1955
48.7310
48.2666
47.8022
47.3378
46.8734
46.4091
45.9448
45.4805
45.0162
44.5519
44.0876
43.6234
43.1591
42.6948
42.2305
41.7662
41.3019
40.8376
40.3733
39.9089
39.4445
38.9801
38.5157
38.0513
37.5868
37.1223
36.6577
36.1931
35.7285
35.2638
34.7991
34.3343
33.8695
33.4047
32.9398
32.4749
32.0100
31.5450
31.0800
30.6150
30.1500
29.6850
29.2200
28.7550
28.2901
27.8253
27.3606
26.8960
26.4316
25.9673
25.5034
25.0397
24.5763
24.1134
23.6509
23.1890
22.7276
22.2670
21.8071
21.3481
20.8901
20.4332
19.9774
19.5231
19.0701
18.6188
18.1693
17.7217
17.2761
16.8329
16.3920
15.9538
15.5184
15.0861
14.6569
14.2312
13.8092
13.3911
12.9770
12.5673
12.1621
11.7617
11.3663
10.9762
10.5915
10.2126
9.8395
9.4725
9.1119
8.7578
8.4105
8.0701
7.7367
7.4107
7.0920
6.7809
6.4775
6.1819
5.8942
5.6145
5.3428
5.0793
4.8240
4.5769
4.3380
4.1073
3.8848
3.6705
3.4643
3.2661
3.0759
2.8936
2.7191
2.5522
2.3928
2.2408
2.0960
1.9584
1.8276
1.7035
1.5859
1.4747
1.3696
1.2705
1.1770
1.0891
1.0066
0.9291
0.8565
0.7885
0.7250
0.6658
0.6107
0.5593
0.5116
0.4674
0.4264
0.3886
0.3536
0.3213
0.2916
0.2642
0.2391
0.2161
0.1951
0.1758
0.1583
0.1423
0.1277
0.1145
0.1025
0.0916
0.0818
0.0729
0.0649
0.0577
0.0512
0.0454
0.0402
0.0355
0.0313
0.0276
0.0243
0.0213
0.0187
0.0164
0.0144
0.0125
0.0109
0.0095
0.0083
0.0072
0.0062
0.0054
0.0047
0.0040
0.0035
0.0030
0.0026
0.0022
0.0019
0.0016
0.0014
0.0012
0.0010
0.0009
0.0007
0.0006
0.0005
0.0004
0.0004
0.0003
0.0003
0.0002
0.0002
0.0002
0.0001
0.0001
0.0001
0.0001
0.0001
0.0001
0.0000
0.0000
0.0000
0.0000
0.0000
0.0000
0.0000
0.0000
0.0000
0.0000
0.0000
0.0000
0.0000
0.0000
0.0000
0.0000
0.0000
0.0000
0.0000
0.0000
0.0000
0.0000
0.0000
0.0000
0.0000
100.5856
100.5856
105.0114
116.9102
139.7231
170.0351
175.4155
167.7707
156.0251
144.1064
133.3660
124.1024
116.2404
109.5977
103.9810
99.2173
95.1597
91.6869
88.6988
86.1136
83.8638
81.8939
80.1581
78.6184
77.2434
76.0067
74.8866
73.8648
72.9260
72.0573
71.2480
70.4892
69.7731
69.0933
68.4444
67.8219
67.2218
66.6409
66.0763
65.5258
64.9873
64.4590
63.9396
63.4277
62.9223
62.4225
61.9276
61.4367
60.9495
60.4653
59.9838
59.5046
59.0274
58.5519
58.0779
57.6052
57.1336
56.6630
56.1932
55.7242
55.2558
54.7879
54.3205
53.8536
53.3870
52.9207
52.4547
51.9889
51.5233
51.0579
50.5927
50.1276
49.6627
49.1978
48.7330
48.2683
47.8037
47.3391
46.8746
46.4101
45.9457
45.4813
45.0169
44.5525
44.0882
43.6239
43.1595
42.6952
42.2309
41.7665
41.3022
40.8378
40.3735
39.9091
39.4447
38.9803
38.5158
38.0514
37.5869
37.1223
36.6578
36.1932
35.7285
35.2639
34.7991
34.3344
33.8696
33.4047
32.9399
32.4749
32.0100
31.5450
31.0800
30.6150
30.1500
29.6850
29.2200
28.7550
28.2901
27.8253
27.3606
26.8960
26.4316
25.9674
25.5034
25.0397
24.5764
24.1134
23.6509
23.1890
22.7276
22.2670
21.8071
21.3481
20.8901
20.4332
19.9774
19.5231
19.0701
18.6188
18.1693
17.7217
17.2761
16.8329
16.3920
15.9538
15.5184
15.0861
14.6569
14.2312
13.8092
13.3911
12.9770
12.5673
12.1621
11.7617
11.3663
10.9762
10.5915
10.2126
9.8395
9.4725
9.1119
8.7578
8.4105
8.0701
7.7367
7.4107
7.0920
6.7809
6.4775
6.1819
5.8942
5.6145
5.3428
5.0793
4.8240
4.5769
4.3380
4.1073
3.8848
3.6705
3.4643
3.2661
3.0759
2.8936
2.7191
2.5522
2.3928
2.2408
2.0960
1.9584
1.8276
1.7035
1.5859
1.4747
1.3696
1.2705
1.1770
1.0891
1.0066
0.9291
0.8565
0.7885
0.7250
0.6658
0.6107
0.5593
0.5116
0.4674
0.4264
0.3886
0.3536
0.3213
0.2916
0.2642
0.2391
0.2161
0.1951
0.1758
0.1583
0.1423
0.1277
0.1145
0.1025
0.0916
0.0818
0.0729
0.0649
0.0577
0.0512
0.0454