# vtk DataFile Version 5.0
Example 3D regular grid VTK file.
ASCII
DATASET UNSTRUCTURED_GRID
POINTS 90601 float
0 0 0
0 10 0
0 20 0
0 30 0
0 40 0
0 50 0
0 60 0
0 70 0
0 80 0
0 90 0
0 100 0
0 110 0
0 120 0
0 130 0
0 140 0
0 150 0
0 160 0
0 170 0
0 180 0
0 190 0
0 200 0
0 210 0
0 220 0
0 230 0
0 240 0
0 250 0
0 260 0
0 270 0
0 280 0
0 290 0
0 300 0
0 310 0
0 320 0
0 330 0
0 340 0
0 350 0
0 360 0
0 370 0
0 380 0
0 390 0
0 400 0
0 410 0
0 420 0
0 430 0
0 440 0
0 450 0
0 460 0
0 470 0
0 480 0
0 490 0
0 500 0
0 510 0
0 520 0
0 530 0
0 540 0
0 550 0
0 560 0
0 570 0
0 580 0
0 590 0
0 600 0
0 610 0
0 620 0
0 630 0
0 640 0
0 650 0
0 660 0
0 670 0
0 680 0
0 690 0
0 700 0
0 710 0
0 720 0
0 730 0
0 740 0
0 750 0
0 760 0
0 770 0
0 780 0
0 790 0
0 800 0
0 810 0
0 820 0
0 830 0
0 840 0
0 850 0
0 860 0
0 870 0
0 880 0
0 890 0
0 900 0
0 910 0
0 920 0
0 930 0
0 940 0
0 950 0
0 960 0
0 970 0
0 980 0
0 990 0
0 1000 0
0 1010 0
0 1020 0
0 1030 0
0 1040 0
0 1050 0
0 1060 0
0 1070 0
0 1080 0
0 1090 0
0 1100 0
0 1110 0
0 1120 0
0 1130 0
0 1140 0
0 1150 0
0 1160 0
0 1170 0
0 1180 0
0 1190 0
0 1200 0
0 1210 0
0 1220 0
0 1230 0
0 1240 0
0 1250 0
0 1260 0
0 1270 0
0 1280 0
0 1290 0
0 1300 0
0 1310 0
0 1320 0
0 1330 0
0 1340 0
0 1350 0
0 1360 0
0 1370 0
0 1380 0
0 1390 0
0 1400 0
0 1410 0
0 1420 0
0 1430 0
0 1440 0
0 1450 0
0 1460 0
0 1470 0
0 1480 0
0 1490 0
0 1500 0
0 1510 0
0 1520 0
0 1530 0
0 1540 0
0 1550 0
0 1560 0
0 1570 0
0 1580 0
0 1590 0
0 1600 0
0 1610 0
0 1620 0
0 1630 0
0 1640 0
0 1650 0
0 1660 0
0 1670 0
0 1680 0
0 1690 0
0 1700 0
0 1710 0
0 1720 0
0 1730 0
0 1740 0
0 1750 0
0 1760 0
0 1770 0
0 1780 0
0 1790 0
0 1800 0
0 1810 0
0 1820 0
0 1830 0
0 1840 0
0 1850 0
0 1860 0
0 1870 0
0 1880 0
0 1890 0
0 1900 0
0 1910 0
0 1920 0
0 1930 0
0 1940 0
0 1950 0
0 1960 0
0 1970 0
0 1980 0
0 1990 0
0 2000 0
0 2010 0
0 2020 0
0 2030 0
0 2040 0
0 2050 0
0 2060 0
0 2070 0
0 2080 0
0 2090 0
0 2100 0
0 2110 0
0 2120 0
0 2130 0
0 2140 0
0 2150 0
0 2160 0
0 2170 0
0 2180 0
0 2190 0
0 2200 0
0 2210 0
0 2220 0
0 2230 0
0 2240 0
0 2250 0
0 2260 0
0 2270 0
0 2280 0
0 2290 0
0 2300 0
0 2310 0
0 2320 0
0 2330 0
0 2340 0
0 2350 0
0 2360 0
0 2370 0
0 2380 0
0 2390 0
0 2400 0
0 2410 0
0 2420 0
0 2430 0
0 2440 0
0 2450 0
0 2460 0
0 2470 0
0 2480 0
0 2490 0
0 2500 0
0 2510 0
0 2520 0
0 2530 0
0 2540 0
0 2550 0
0 2560 0
0 2570 0
0 2580 0
0 2590 0
0 2600 0
0 2610 0
0 2620 0
0 2630 0
0 2640 0
0 2650 0
0 2660 0
0 2670 0
0 2680 0
0 2690 0
0 2700 0
0 2710 0
0 2720 0
0 2730 0
0 2740 0
0 2750 0
0 2760 0
0 2770 0
0 2780 0
0 2790 0
0 2800 0
0 2810 0
0 2820 0
0 2830 0
0 2840 0
0 2850 0
0 2860 0
0 2870 0
0 2880 0
0 2890 0
0 2900 0
0 2910 0
0 2920 0
0 2930 0
0 2940 0
0 2950 0
0 2960 0
0 2970 0
0 2980 0
0 2990 0
0 3000 0
10 0 0
10 10 0
10 20 0
10 30 0
10 40 0
10 50 0
10 60 0
10 70 0
10 80 0
10 90 0
10 100 0
10 110 0
10 120 0
10 130 0
10 140 0
10 150 0
10 160 0
10 170 0
10 180 0
10 190 0
10 200 0
10 210 0
10 220 0
10 230 0
10 240 0
10 250 0
10 260 0
10 270 0
10 280 0
10 290 0
10 300 0
10 310 0
10 320 0
10 330 0
10 340 0
10 350 0
10 360 0
10 370 0
10 380 0
10 390 0
10 400 0
10 410 0
10 420 0
10 430 0
10 440 0
10 450 0
10 460 0
10 470 0
10 480 0
10 490 0
10 500 0
10 510 0
10 520 0
10 530 0
10 540 0
10 550 0
10 560 0
10 570 0
10 580 0
10 590 0
10 600 0
10 610 0
10 620 0
10 630 0
10 640 0
10 650 0
10 660 0
10 670 0
10 680 0
10 690 0
10 700 0
10 710 0
10 720 0
10 730 0
10 740 0
10 750 0
10 760 0
10 770 0
10 780 0
10 790 0
10 800 0
10 810 0
10 820 0
10 830 0
10 840 0
10 850 0
10 860 0
10 870 0
10 880 0
10 890 0
10 900 0
10 910 0
10 920 0
10 930 0
10 940 0
10 950 0
10 960 0
10 970 0
10 980 0
10 990 0
10 1000 0
10 1010 0
10 1020 0
10 1030 0
10 1040 0
10 1050 0
10 1060 0
10 1070 0
10 1080 0
10 1090 0
10 1100 0
10 1110 0
10 1120 0
10 1130 0
10 1140 0
10 1150 0
10 1160 0
10 1170 0
10 1180 0
10 1190 0
10 1200 0
10 1210 0
10 1220 0
10 1230 0
10 1240 0
10 1250 0
10 1260 0
10 1270 0
10 1280 0
10 1290 0
10 1300 0
10 1310 0
10 1320 0
10 1330 0
10 1340 0
10 1350 0
10 1360 0
10 1370 0
10 1380 0
10 1390 0
10 1400 0
10 1410 0
10 1420 0
10 1430 0
10 1440 0
10 1450 0
10 1460 0
10 1470 0
10 1480 0
10 1490 0
10 1500 0
10 1510 0
10 1520 0
10 1530 0
10 1540 0
10 1550 0
10 1560 0
10 1570 0
10 1580 0
10 1590 0
10 1600 0
10 1610 0
10 1620 0
10 1630 0
10 1640 0
10 1650 0
10 1660 0
10 1670 0
10 1680 0
10 1690 0
10 1700 0
10 1710 0
10 1720 0
10 1730 0
10 1740 0
10 1750 0
10 1760 0
10 1770 0
10 1780 0
10 1790 0
10 1800 0
10 1810 0
10 1820 0
10 1830 0
10 1840 0
10 1850 0
10 1860 0
10 1870 0
10 1880 0
10 1890 0
10 1900 0
10 1910 0
10 1920 0
10 1930 0
10 1940 0
10 1950 0
10 1960 0
10 1970 0
10 1980 0
10 1990 0
10 2000 0
10 2010 0
10 2020 0
10 2030 0
10 2040 0
10 2050 0
10 2060 0
10 2070 0
10 2080 0
10 2090 0
10 2100 0
10 2110 0
10 2120 0
10 2130 0
10 2140 0
10 2150 0
10 2160 0
10 2170 0
10 2180 0
10 2190 0
10 2200 0
10 2210 0
10 2220 0
10 2230 0
10 2240 0
10 2250 0
10 2260 0
10 2270 0
10 2280 0
10 2290 0
10 2300 0
10 2310 0
10 2320 0
10 2330 0
10 2340 0
10 2350 0
10 2360 0
10 2370 0
10 2380 0
10 2390 0
10 2400 0
10 2410 0
10 2420 0
10 2430 0
10 2440 0
10 2450 0
10 2460 0
10 2470 0
10 2480 0
10 2490 0
10 2500 0
10 2510 0
10 2520 0
10 2530 0
10 2540 0
10 2550 0
10 2560 0
10 2570 0
10 2580 0
10 2590 0
10 2600 0
10 2610 0
10 2620 0
10 2630 0
10 2640 0
10 2650 0
10 2660 0
10 2670 0
10 2680 0
10 2690 0
10 2700 0
10 2710 0
10 2720 0
10 2730 0
10 2740 0
10 2750 0
10 2760 0
10 2770 0
10 2780 0
10 2790 0
10 2800 0
10 2810 0
10 2820 0
10 2830 0
10 2840 0
10 2850 0
10 2860 0
10 2870 0
10 2880 0
10 2890 0
10 2900 0
10 2910 0
10 2920 0
10 2930 0
10 2940 0
10 2950 0
10 2960 0
10 2970 0
10 2980 0
10 2990 0
10 3000 0
20 0 0
20 10 0
20 20 0
20 30 0
20 40 0
20 50 0
20 60 0
20 70 0
20 80 0
20 90 0
20 100 0
20 110 0
20 120 0
20 130 0
20 140 0
20 150 0
20 160 0
20 170 0
20 180 0
20 190 0
20 200 0
20 210 0
20 220 0
20 230 0
20 240 0
20 250 0
20 260 0
20 270 0
20 280 0
20 290 0
20 300 0
20 310 0
20 320 0
20 330 0
20 340 0
20 350 0
20 360 0
20 370 0
20 380 0
20 390 0
20 400 0
20 410 0
20 420 0
20 430 0
20 440 0
20 450 0
20 460 0
20 470 0
20 480 0
20 490 0
20 500 0
20 510 0
20 520 0
20 530 0
20 540 0
20 550 0
20 560 0
20 570 0
20 580 0
20 590 0
20 600 0
20 610 0
20 620 0
20 630 0
20 640 0
20 650 0
20 660 0
20 670 0
20 680 0
20 690 0
20 700 0
20 710 0
20 720 0
20 730 0
20 740 0
20 750 0
20 760 0
20 770 0
20 780 0
20 790 0
20 800 0
20 810 0
20 820 0
20 830 0
20 840 0
20 850 0
20 860 0
20 870 0
20 880 0
20 890 0
20 900 0
20 910 0
20 920 0
20 930 0
20 940 0
20 950 0
20 960 0
20 970 0
20 980 0
20 990 0
20 1000 0
20 1010 0
20 1020 0
20 1030 0
20 1040 0
20 1050 0
20 1060 0
20 1070 0
20 1080 0
20 1090 0
20 1100 0
20 1110 0
20 1120 0
20 1130 0
20 1140 0
20 1150 0
20 1160 0
20 1170 0
20 1180 0
20 1190 0
20 1200 0
20 1210 0
20 1220 0
20 1230 0
20 1240 0
20 1250 0
20 1260 0
20 1270 0
20 1280 0
20 1290 0
20 1300 0
20 1310 0
20 1320 0
20 1330 0
20 1340 0
20 1350 0
20 1360 0
20 1370 0
20 1380 0
20 1390 0
20 1400 0
20 1410 0
20 1420 0
20 1430 0
20 1440 0
20 1450 0
20 1460 0
20 1470 0
20 1480 0
20 1490 0
20 1500 0
20 1510 0
20 1520 0
20 1530 0
20 1540 0
20 1550 0
20 1560 0
20 1570 0
20 1580 0
20 1590 0
20 1600 0
20 1610 0
20 1620 0
20 1630 0
20 1640 0
20 1650 0
20 1660 0
20 1670 0
20 1680 0
20 1690 0
20 1700 0
20 1710 0
20 1720 0
20 1730 0
20 1740 0
20 1750 0
20 1760 0
20 1770 0
20 1780 0
20 1790 0
20 1800 0
20 1810 0
20 1820 0
20 1830 0
20 1840 0
20 1850 0
20 1860 0
20 1870 0
20 1880 0
20 1890 0
20 1900 0
20 1910 0
20 1920 0
20 1930 0
20 1940 0
20 1950 0
20 1960 0
20 1970 0
20 1980 0
20 1990 0
20 2000 0
20 2010 0
20 2020 0
20 2030 0
20 2040 0
20 2050 0
20 2060 0
20 2070 0
20 2080 0
20 2090 0
20 2100 0
20 2110 0
20 2120 0
20 2130 0
20 2140 0
20 2150 0
20 2160 0
20 2170 0
20 2180 0
20 2190 0
20 2200 0
20 2210 0
20 2220 0
20 2230 0
20 2240 0
20 2250 0
20 2260 0
20 2270 0
20 2280 0
20 2290 0
20 2300 0
20 2310 0
20 2320 0
20 2330 0
20 2340 0
20 2350 0
20 2360 0
20 2370 0
20 2380 0
20 2390 0
20 2400 0
20 2410 0
20 2420 0
20 2430 0
20 2440 0
20 2450 0
20 2460 0
20 2470 0
20 2480 0
20 2490 0
20 2500 0
20 2510 0
20 2520 0
20 2530 0
20 2540 0
20 2550 0
20 2560 0
20 2570 0
20 2580 0
20 2590 0
20 2600 0
20 2610 0
20 2620 0
20 2630 0
20 2640 0
20 2650 0
20 2660 0
20 2670 0
20 2680 0
20 2690 0
20 2700 0
20 2710 0
20 2720 0
20 2730 0
20 2740 0
20 2750 0
20 2760 0
20 2770 0
20 2780 0
20 2790 0
20 2800 0
20 2810 0
20 2820 0
20 2830 0
20 2840 0
20 2850 0
20 2860 0
20 2870 0
20 2880 0
20 2890 0
20 2900 0
20 2910 0
20 2920 0
20 2930 0
20 2940 0
20 2950 0
20 2960 0
20 2970 0
20 2980 0
20 2990 0
20 3000 0
30 0 0
30 10 0
30 20 0
30 30 0
30 40 0
30 50 0
30 60 0
30 70 0
30 80 0
30 90 0
30 100 0
30 110 0
30 120 0
30 130 0
30 140 0
30 150 0
30 160 0
30 170 0
30 180 0
30 190 0
30 200 0
30 210 0
30 220 0
30 230 0
30 240 0
30 250 0
30 260 0
30 270 0
30 280 0
30 290 0
30 300 0
30 310 0
30 320 0
30 330 0
30 340 0
30 350 0
30 360 0
30 370 0
30 380 0
30 390 0
30 400 0
30 410 0
30 420 0
30 430 0
30 440 0
30 450 0
30 460 0
30 470 0
30 480 0
30 490 0
30 500 0
30 510 0
30 520 0
30 530 0
30 540 0
30 550 0
30 560 0
30 570 0
30 580 0
30 590 0
30 600 0
30 610 0
30 620 0
30 630 0
30 640 0
30 650 0
30 660 0
30 670 0
30 680 0
30 690 0
30 700 0
30 710 0
30 720 0
30 730 0
30 740 0
30 750 0
30 760 0
30 770 0
30 780 0
30 790 0
30 800 0
30 810 0
30 820 0
30 830 0
30 840 0
30 850 0
30 860 0
30 870 0
30 880 0
30 890 0
30 900 0
30 910 0
30 920 0
30 930 0
30 940 0
30 950 0
30 960 0
30 970 0
30 980 0
30 990 0
30 1000 0
30 1010 0
30 1020 0
30 1030 0
30 1040 0
30 1050 0
30 1060 0
30 1070 0
30 1080 0
30 1090 0
30 1100 0
30 1110 0
30 1120 0
30 1130 0
30 1140 0
30 1150 0
30 1160 0
30 1170 0
30 1180 0
30 1190 0
30 1200 0
30 1210 0
30 1220 0
30 1230 0
30 1240 0
30 1250 0
30 1260 0
30 1270 0
30 1280 0
30 1290 0
30 1300 0
30 1310 0
30 1320 0
30 1330 0
30 1340 0
30 1350 0
30 1360 0
30 1370 0
30 1380 0
30 1390 0
30 1400 0
30 1410 0
30 1420 0
30 1430 0
30 1440 0
30 1450 0
30 1460 0
30 1470 0
30 1480 0
30 1490 0
30 1500 0
30 1510 0
30 1520 0
30 1530 0
30 1540 0
30 1550 0
30 1560 0
30 1570 0
30 1580 0
30 1590 0
[...]
POINT_DATA 90601
SCALARS P float
LOOKUP_TABLE default
76.4555
76.4555
76.4925
76.5805
76.7285
76.9352
77.1884
77.4670
77.7467
78.0047
78.2225
78.3877
78.4935
78.5378
78.5218
78.4491
78.3244
78.1530
77.9404
77.6918
77.4119
77.1052
76.7753
76.4257
76.0593
75.6786
75.2856
74.8823
74.4701
74.0504
73.6243
73.1928
72.7567
72.3165
71.8730
71.4266
70.9777
70.5267
70.0739
69.6196
69.1639
68.7071
68.2493
67.7906
67.3312
66.8712
66.4106
65.9496
65.4881
65.0264
64.5643
64.1019
63.6393
63.1766
62.7136
62.2505
61.7873
61.3240
60.8605
60.3970
59.9334
59.4698
59.0061
58.5423
58.0785
57.6147
57.1508
56.6869
56.2230
55.7591
55.2951
54.8311
54.3671
53.9031
53.4391
52.9751
52.5110
52.0470
51.5829
51.1188
50.6548
50.1907
49.7266
49.2625
48.7984
48.3343
47.8702
47.4061
46.9420
46.4778
46.0137
45.5495
45.0854
44.6212
44.1570
43.6928
43.2286
42.7644
42.3001
41.8359
41.3716
40.9073
40.4429
39.9786
39.5142
39.0498
38.5854
38.1209
37.6564
37.1919
36.7274
36.2628
35.7981
35.3335
34.8688
34.4041
33.9393
33.4746
33.0098
32.5450
32.0801
31.6153
31.1505
30.6857
30.2210
29.7562
29.2916
28.8270
28.3626
27.8983
27.4342
26.9702
26.5065
26.0431
25.5800
25.1173
24.6550
24.1933
23.7321
23.2715
22.8117
22.3526
21.8945
21.4373
20.9813
20.5264
20.0729
19.6209
19.1704
18.7217
18.2748
17.8300
17.3874
16.9471
16.5094
16.0744
15.6423
15.2133
14.7876
14.3654
13.9468
13.5322
13.1217
12.7155
12.3138
11.9169
11.5249
11.1381
10.7567
10.3809
10.0109
9.6468
9.2890
8.9375
8.5925
8.2543
7.9229
7.5986
7.2815
6.9716
6.6692
6.3743
6.0871
5.8076
5.5359
5.2720
5.0160
4.7679
4.5278
4.2956
4.0713
3.8549
3.6464
3.4456
3.2526
3.0672
2.8894
2.7190
2.5560
2.4001
2.2514
2.1095
1.9744
1.8459
1.7239
1.6081
1.4984
1.3946
1.2965
1.2039
1.1166
1.0345
0.9572
0.8847
0.8167
0.7530
0.6934
0.6378
0.5859
0.5376
0.4927
0.4510
0.4122
0.3764
0.3432
0.3126
0.2843
0.2583
0.2343
0.2123
0.1921
0.1736
0.1567
0.1413
0.1272
0.1143
0.1027
0.0921
0.0824
0.0737
0.0659
0.0587
0.0523
0.0466
0.0414
0.0367
0.0325
0.0288
0.0254
0.0224
0.0198
0.0174
0.0153
0.0134
0.0118
0.0103
0.0090
0.0079
0.0068
0.0060
0.0052
0.0045
0.0039
0.0034
0.0029
0.0025
0.0022
0.0019
0.0016
0.0014
0.0012
0.0010
0.0009
0.0007
0.0006
0.0005
0.0005
0.0004
0.0003
0.0003
0.0002
0.0002
0.0002
0.0001
0.0001
0.0001
0.0001
0.0001
0.0001
0.0000
0.0000
0.0000
0.0000
0.0000
0.0000
0.0000
0.0000
0.0000
0.0000
0.0000
0.0000
76.4555
76.4555
76.4925
76.5805
76.7285
76.9352
77.1884
77.4670
77.7467
78.0047
78.2225
78.3877
78.4935
78.5378
78.5218
78.4491
78.3244
78.1530
77.9404
77.6918
77.4119
77.1052
76.7753
76.4257
76.0593
75.6786
75.2856
74.8823
74.4701
74.0504
73.6243
73.1928
72.7567
72.3165
71.8730
71.4266
70.9777
70.5267
70.0739
69.6196
69.1639
68.7071
68.2493
67.7906
67.3312
66.8712
66.4106
65.9496
65.4881
65.0264
64.5643
64.1019
63.6393
63.1766
62.7136
62.2505
61.7873
61.3240
60.8605
60.3970
59.9334
59.4698
59.0061
58.5423
58.0785
57.6147
57.1508
56.6869
56.2230
55.7591
55.2951
54.8311
54.3671
53.9031
53.4391
52.9751
52.5110
52.0470
51.5829
51.1188
50.6548
50.1907
49.7266
49.2625
48.7984
48.3343
47.8702
47.4061
46.9420
46.4778
46.0137
45.5495
45.0854
44.6212
44.1570
43.6928
43.2286
42.7644
42.3001
41.8359
41.3716
40.9073
40.4429
39.9786
39.5142
39.0498
38.5854
38.1209
37.6564
37.1919
36.7274
36.2628
35.7981
35.3335
34.8688
34.4041
33.9393
33.4746
33.0098
32.5450
32.0801
31.6153
31.1505
30.6857
30.2210
29.7562
29.2916
28.8270
28.3626
27.8983
27.4342
26.9702
26.5065
26.0431
25.5800
25.1173
24.6550
24.1933
23.7321
23.2715
22.8117
22.3526
21.8945
21.4373
20.9813
20.5264
20.0729
19.6209
19.1704
18.7217
18.2748
17.8300
17.3874
16.9471
16.5094
16.0744
15.6423
15.2133
14.7876
14.3654
13.9468
13.5322
13.1217
12.7155
12.3138
11.9169
11.5249
11.1381
10.7567
10.3809
10.0109
9.6468
9.2890
8.9375
8.5925
8.2543
7.9229
7.5986
7.2815
6.9716
6.6692
6.3743
6.0871
5.8076
5.5359
5.2720
5.0160
4.7679
4.5278
4.2956
4.0713
3.8549
3.6464
3.4456
3.2526
3.0672
2.8894
2.7190
2.5560
2.4001
2.2514
2.1095
1.9744
1.8459
1.7239
1.6081
1.4984
1.3946
1.2965
1.2039
1.1166
1.0345
0.9572
0.8847
0.8167
0.7530
0.6934
0.6378
0.5859
0.5376
0.4927
0.4510
0.4122
0.3764
0.3432
0.3126
0.2843
0.2583
0.2343
0.2123
0.1921
0.1736
0.1567
0.1413
0.1272
0.1143
0.1027
0.0921
0.0824
0.0737
0.0659
0.0587
0.0523
0.0466
0.0414
0.0367
0.0325
0.0288
0.0254
0.0224
0.0198
0.0174
0.0153
0.0134
0.0118
0.0103
0.0090
0.0079
0.0068
0.0060
0.0052
0.0045
0.0039
0.0034
0.0029
0.0025
0.0022
0.0019
0.0016
0.0014
0.0012
0.0010
0.0009
0.0007
0.0006
0.0005
0.0005
0.0004
0.0003
0.0003
0.0002
0.0002
0.0002
0.0001
0.0001
0.0001
0.0001
0.0001
0.0001
0.0000
0.0000
0.0000
0.0000
0.0000
0.0000
0.0000
0.0000
0.0000
0.0000
0.0000
0.0000
76.7468
76.7468
76.7955
76.9111
77.1025
77.3631
77.6700
77.9911
78.2945
78.5554
78.7572
78.8920
78.9580
78.9575
78.8955
78.7778
78.6110
78.4013
78.1543
77.8754
77.5691
77.2395
76.8900
76.5235
76.1427
75.7497
75.3463
74.9341
74.5143
74.0882
73.6567
73.2205
72.7804
72.3368
71.8904
71.4416
70.9906
70.5378
70.0835
69.6278
69.1710
68.7132
68.2545
67.7952
67.3351
66.8746
66.4136
65.9521
65.4904
65.0283
64.5659
64.1034
63.6406
63.1777
62.7146
62.2514
61.7880
61.3246
60.8611
60.3975
59.9339
59.4702
59.0064
58.5426
58.0788
57.6149
57.1510
56.6871
56.2231
55.7592
55.2952
54.8312
54.3672
53.9032
53.4392
52.9751
52.5111
52.0470
51.5830
51.1189
50.6548
50.1907
49.7266
49.2625
48.7984
48.3343
47.8702
47.4061
46.9420
46.4778
46.0137
45.5495
45.0854
44.6212
44.1570
43.6928
43.2286
42.7644
42.3001
41.8359
41.3716
40.9073
40.4429
39.9786
39.5142
39.0498
38.5854
38.1209
37.6564
37.1919
36.7274
36.2628
35.7981
35.3335
34.8688
34.4041
33.9393
33.4746
33.0098
32.5450
32.0801
31.6153
31.1505
30.6857
30.2210
29.7562
29.2916
28.8270
28.3626
27.8983
27.4342
26.9702
26.5065
26.0431
25.5800
25.1173
24.6550
24.1933
23.7321
23.2715
22.8117
22.3526
21.8945
21.4373
20.9813
20.5264
20.0729
19.6209
19.1704
18.7217
18.2748
17.8300
17.3874
16.9471
16.5094
16.0744
15.6423
15.2133
14.7876
14.3654
13.9468
13.5322
13.1217
12.7155
12.3138
11.9169
11.5249
11.1381
10.7567
10.3809
10.0109
9.6468
9.2890
8.9375
8.5925
8.2543
7.9229
7.5986
7.2815
6.9716
6.6692
6.3743
6.0871
5.8076
5.5359
5.2720
5.0160
4.7679
4.5278
4.2956
4.0713
3.8549
3.6464
3.4456
3.2526
3.0672
2.8894
2.7190
2.5560
2.4001
2.2514
2.1095
1.9744
1.8459
1.7239
1.6081
1.4984
1.3946
1.2965
1.2039
1.1166
1.0345
0.9572
0.8847
0.8167
0.7530
0.6934
0.6378
0.5859
0.5376
0.4927
0.4510
0.4122
0.3764
0.3432
0.3126
0.2843
0.2583
0.2343
0.2123
0.1921
0.1736
0.1567
0.1413
0.1272
0.1143
0.1027
0.0921
0.0824
0.0737
0.0659
0.0587
0.0523
0.0466
0.0414
0.0367
0.0325
0.0288
0.0254
0.0224
0.0198
0.0174
0.0153
0.0134
0.0118
0.0103
0.0090
0.0079
0.0068
0.0060
0.0052
0.0045
0.0039
0.0034
0.0029
0.0025
0.0022
0.0019
0.0016
0.0014
0.0012
0.0010
0.0009
0.0007
0.0006
0.0005
0.0005
0.0004
0.0003
0.0003
0.0002
0.0002
0.0002
0.0001
0.0001
0.0001
0.0001
0.0001
0.0001
0.0000
0.0000
0.0000
0.0000
0.0000
0.0000
0.0000
0.0000
0.0000
0.0000
0.0000
0.0000
77.5234
77.5234
77.6088
77.8096
78.1353
78.5598
79.0232
79.4584
79.8151
80.0670
80.2080
80.2454
80.1923
80.0635
79.8731
79.6332
79.3535
79.0420
78.7049
78.3471
77.9724
77.5837
77.1836
76.7739
76.3562
75.9318
75.5016
75.0667
74.6276
74.1851
73.7395
73.2914
72.8411
72.3890
71.9352
71.4800
71.0237
70.5663
70.1080
69.6489
69.1892
68.7289
68.2681
67.8069
67.3453
66.8834
66.4212
65.9588
65.4961
65.0333
64.5703
64.1071
63.6439
63.1805
62.7171
62.2535
61.7899
61.3262
60.8625
60.3988
59.9349
59.4711
59.0072
58.5433
58.0794
57.6155
57.1515
56.6875
56.2235
55.7595
55.2955
54.8315
54.3674
53.9034
53.4393
52.9753
52.5112
52.0471
51.5831
51.1190
50.6549
50.1908
49.7267
49.2626
48.7985
48.3344
47.8703
47.4061
46.9420
46.4779
46.0137
45.5496
45.0854
44.6212
44.1570
43.6928
43.2286
42.7644
42.3001
41.8359
41.3716
40.9073
40.4430
39.9786
39.5142
39.0498
38.5854
38.1209
37.6564
37.1919
36.7274
36.2628
35.7981
35.3335
34.8688
34.4041
33.9393
33.4746
33.0098
32.5450
32.0801
31.6153
31.1505
30.6857
30.2210
29.7562
29.2916
28.8270
28.3626
27.8983
27.4342
26.9702
26.5065
26.0431
25.5800
25.1173
24.6550
24.1933
23.7321
23.2715
22.8117
22.3526
21.8945
21.4373
20.9813
20.5264
20.0729
19.6209
19.1704
18.7217
18.2748
17.8300
17.3874
16.9471
16.5094
16.0744
15.6423
15.2133
14.7876
14.3654
13.9468
13.5322
13.1217
12.7155
12.3138
11.9169
11.5249
11.1381
10.7567
10.3809
10.0109
9.6468
9.2890
8.9375
8.5925
8.2543
7.9229
7.5986
7.2815
6.9716
6.6692
6.3743
6.0871
5.8076
5.5359
5.2720
5.0160
4.7679
4.5278
4.2956
4.0713
3.8549
3.6464
3.4456
3.2526
3.0672
2.8894
2.7190
2.5560
2.4001
2.2514
2.1095
1.9744
1.8459
1.7239
1.6081
1.4984
1.3946
1.2965
1.2039
1.1166
1.0345
0.9572
0.8847
0.8167
0.7530
0.6934
0.6378
0.5859
0.5376
0.4927
0.4510
0.4122
0.3764
0.3432
0.3126
0.2843
0.2583
0.2343
0.2123
0.1921
0.1736
0.1567
0.1413
0.1272
0.1143
0.1027
0.0921
0.0824
0.0737
0.0659
0.0587
0.0523
0.0466
0.0414
0.0367
0.0325
0.0288
0.0254
0.0224
0.0198
0.0174
0.0153
0.0134
0.0118
0.0103
0.0090
0.0079
0.0068
0.0060
0.0052
0.0045
0.0039
0.0034
0.0029
0.0025
0.0022
0.0019
0.0016
0.0014
0.0012
0.0010
0.0009
0.0007
0.0006
0.0005
0.0005
0.0004
0.0003
0.0003
0.0002
0.0002
0.0002
0.0001
0.0001
0.0001
0.0001
0.0001
0.0001
0.0000
0.0000
0.0000
0.0000
0.0000
0.0000
0.0000
0.0000
0.0000
0.0000
0.0000
0.0000
79.0918
79.0918
79.2702
79.6887
80.3578
81.1923
82.0172
82.6779
83.0962
83.2645
83.2164
83.0007
82.6655
82.2503
81.7853
81.2915
80.7832
80.2694
79.7554
79.2444
78.7378
78.2363
77.7397
77.2478
76.7602
76.2763
75.7956
75.3177
74.8422
74.3686
73.8966
73.4260
72.9565
72.4880
72.0203
71.5532
71.0866
70.6205
70.1547
69.6892
69.2240
68.7590
68.2941
67.8294
67.3648
66.9003
66.4358
65.9714
65.5071
65.0428
64.5786
64.1144
63.6502
63.1860
62.7218
62.2577
61.7935
61.3294
60.8653
60.4012
59.9370
59.4729
59.0088
58.5447
58.0806
57.6165
57.1524
56.6883
56.2242
55.7601
55.2960
54.8319
54.3678
53.9038
53.4397
52.9756
52.5115
52.0474
51.5832
51.1191
50.6550
50.1909
49.7268
49.2627
48.7986
48.3345
47.8703
47.4062
46.9421
46.4779
46.0138
45.5496
45.0854
44.6212
44.1570
43.6928
43.2286
42.7644
42.3001
41.8359
41.3716
40.9073
40.4430
39.9786
39.5142
39.0498
38.5854
38.1209
37.6564
37.1919
36.7274
36.2628
35.7981
35.3335
34.8688
34.4041
33.9393
33.4746
33.0098
32.5450
32.0801
31.6153
31.1505
30.6857
30.2210
29.7562
29.2916
28.8270
28.3626
27.8983
27.4342
26.9702
26.5065
26.0431
25.5800
25.1173
24.6550
24.1933
23.7321
23.2715
22.8117
22.3526
21.8945
21.4373
20.9813
20.5264
20.0729
19.6209
19.1704
18.7217
18.2748
17.8300
17.3874
16.9471
16.5094
16.0744
15.6423
15.2133
14.7876
14.3654
13.9468
13.5322
13.1217
12.7155
12.3138
11.9169
11.5249
11.1381
10.7567
10.3809
10.0109
9.6468
9.2890
8.9375
8.5925
8.2543
7.9229
7.5986
7.2815
6.9716
6.6692
6.3743
6.0871
5.8076
5.5359
5.2720
5.0160
4.7679
4.5278
4.2956
4.0713
3.8549
3.6464
3.4456
3.2526
3.0672
2.8894
2.7190
2.5560
2.4001
2.2514
2.1095
1.9744
1.8459
1.7239
1.6081
1.4984
1.3946
1.2965
1.2039
1.1166
1.0345
0.9572
0.8847
0.8167
0.7530
0.6934
0.6378
0.5859
0.5376
0.4927
0.4510
0.4122
0.3764
0.3432
0.3126
0.2843
0.2583
0.2343
0.2123
0.1921
0.1736
0.1567
0.1413
0.1272
0.1143
0.1027
0.0921
0.0824
0.0737
0.0659
0.0587
0.0523
0.0466
0.0414
0.0367
0.0325
0.0288
0.0254
0.0224
0.0198
0.0174
0.0153
0.0134
0.0118
0.0103
0.0090
0.0079
0.0068
0.0060
0.0052
0.0045
0.0039
0.0034
0.0029
0.0025
0.0022
0.0019
0.0016
0.0014
0.0012
0.0010
0.0009
0.0007
0.0006
0.0005
0.0005
0.0004
0.0003
0.0003
0.0002
0.0002
0.0002
0.0001
0.0001
0.0001
0.0001
0.0001
0.0001
0.0000
0.0000
0.0000
0.0000
0.0000
0.0000
0.0000
0.0000
0.0000
0.0000
0.0000
0.0000
81.9192
81.9192
82.3206
83.2699
84.7881
86.6139
88.2040
89.2116
89.5714
89.3864
88.8135
87.9998
87.0584
86.0678
85.0775
84.1161
83.1982
82.3295
81.5105
80.7386
80.0095
79.3187
78.6613
78.0330
77.4295
76.8472
76.2831
75.7342
75.1984
74.6735
74.1578
73.6500
73.1488
72.6532
72.1623
71.6754
71.1919
70.7112
70.2330
69.7568
69.2824
68.8095
68.3378
67.8672
67.3975
66.9287
66.4605
65.9928
65.5257
65.0590
64.5926
64.1266
63.6608
63.1952
62.7299
62.2647
61.7997
61.3347
60.8699
60.4052
59.9406
59.4761
59.0116
58.5471
58.0827
57.6184
57.1540
56.6897
56.2255
55.7612
55.2970
54.8328
54.3686
53.9044
53.4402
52.9760
52.5119
52.0477
51.5836
51.1194
50.6553
50.1911
49.7270
49.2629
48.7987
48.3346
47.8704
47.4063
46.9421
46.4780
46.0138
45.5497
45.0855
44.6213
44.1571
43.6929
43.2287
42.7644
42.3002
41.8359
41.3716
40.9073
40.4430
39.9786
39.5142
39.0498
38.5854
38.1209
37.6564
37.1919
36.7274
36.2628
35.7982
35.3335
34.8688
34.4041
33.9393
33.4746
33.0098
32.5450
32.0801
31.6153
31.1505
30.6857
30.2210
29.7562
29.2916
28.8270
28.3626
27.8983
27.4342
26.9702
26.5065
26.0431
25.5800
25.1173
24.6550
24.1933
23.7321
23.2715
22.8117
22.3526
21.8945
21.4373
20.9813
20.5264
20.0729
19.6209
19.1704
18.7217
18.2748
17.8300
17.3874
16.9471
16.5094
16.0744
15.6423
15.2133
14.7876
14.3654
13.9468
13.5322
13.1217
12.7155
12.3138
11.9169
11.5249
11.1381
10.7567
10.3809
10.0109
9.6468
9.2890
8.9375
8.5925
8.2543
7.9229
7.5986
7.2815
6.9716
6.6692
6.3743
6.0871
5.8076
5.5359
5.2720
5.0160
4.7679
4.5278
4.2956
4.0713
3.8549
3.6464
3.4456
3.2526
3.0672
2.8894
2.7190
2.5560
2.4001
2.2514
2.1095
1.9744
1.8459
1.7239
1.6081
1.4984
1.3946
1.2965
1.2039
1.1166
1.0345
0.9572
0.8847
0.8167
0.7530
0.6934
0.6378
0.5859
0.5376
0.4927
0.4510
0.4122
0.3764
0.3432
0.3126
0.2843
0.2583
0.2343
0.2123
0.1921
0.1736
0.1567
0.1413
0.1272
0.1143
0.1027
0.0921
0.0824
0.0737
0.0659
0.0587
0.0523
0.0466
0.0414
0.0367
0.0325
0.0288
0.0254
0.0224
0.0198
0.0174
0.0153
0.0134
0.0118
0.0103
0.0090
0.0079
0.0068
0.0060
0.0052
0.0045
0.0039
0.0034
0.0029
0.0025
0.0022
0.0019
0.0016
0.0014
0.0012
0.0010
0.0009
0.0007
0.0006
0.0005
0.0005
0.0004
0.0003
0.0003
0.0002
0.0002
0.0002
0.0001
0.0001
0.0001
0.0001
0.0001
0.0001
0.0000
0.0000
0.0000
0.0000
0.0000
0.0000
0.0000
0.0000
0.0000
0.0000
0.0000
0.0000
86.6725
86.6725
87.5918
89.8143
93.4449
97.7241
100.8005
102.0540
101.7525
100.4222
98.5326
96.4139
94.2696
92.2123
90.2967
88.5426
86.9506
85.5107
84.2087
83.0287
81.9549
80.9727
80.0690
79.2322
78.4522
77.7203
77.0291
76.3723
75.7447
75.1417
74.5595
73.9949
73.4452
72.9082
72.3818
71.8645
71.3550
70.8520
70.3545
69.8619
69.3733
68.8881
68.4059
67.9263
67.4487
66.9731
66.4990
66.0263
65.5548
65.0843
64.6147
64.1458
63.6775
63.2098
62.7426
62.2758
61.8093
61.3432
60.8773
60.4117
59.9462
59.4810
59.0159
58.5509
58.0860
57.6212
57.1566
56.6919
56.2274
55.7629
55.2985
54.8341
54.3697
53.9054
53.4411
52.9768
52.5126
52.0483
51.5841
51.1199
50.6557
50.1915
49.7273
49.2631
48.7990
48.3348
47.8706
47.4065
46.9423
46.4781
46.0139
45.5498
45.0856
44.6214
44.1572
43.6929
43.2287
42.7645
42.3002
41.8359
41.3716
40.9073
40.4430
39.9786
39.5143
39.0499
38.5854
38.1210
37.6565
37.1919
36.7274
36.2628
35.7982
35.3335
34.8688
34.4041
33.9393
33.4746
33.0098
32.5450
32.0801
31.6153
31.1505
30.6857
30.2210
29.7562
29.2916
28.8270
28.3626
27.8983
27.4342
26.9702
26.5065
26.0431
25.5800
25.1173
24.6550
24.1933
23.7321
23.2715
22.8117
22.3526
21.8945
21.4373
20.9813
20.5264
20.0729
19.6209
19.1704
18.7217
18.2748
17.8300
17.3874
16.9471
16.5094
16.0744
15.6423
15.2133
14.7876
14.3654
13.9468
13.5322
13.1217
12.7155
12.3138
11.9169
11.5249
11.1381
10.7567
10.3809
10.0109
9.6468
9.2890
8.9375
8.5925
8.2543
7.9229
7.5986
7.2815
6.9716
6.6692
6.3743
6.0871
5.8076
5.5359
5.2720
5.0160
4.7679
4.5278
4.2956
4.0713
3.8549
3.6464
3.4456
3.2526
3.0672
2.8894
2.7190
2.5560
2.4001
2.2514
2.1095
1.9744
1.8459
1.7239
1.6081
1.4984
1.3946
1.2965
1.2039
1.1166
1.0345
0.9572
0.8847
0.8167
0.7530
0.6934
0.6378
0.5859
0.5376
0.4927
0.4510
0.4122
0.3764
0.3432
0.3126
0.2843
0.2583
0.2343
0.2123
0.1921
0.1736
0.1567
0.1413
0.1272
0.1143
0.1027
0.0921
0.0824
0.0737
0.0659
0.0587
0.0523
0.0466
0.0414
0.0367
0.0325
0.0288
0.0254
0.0224
0.0198
0.0174
0.0153
0.0134
0.0118
0.0103
0.0090
0.0079
0.0068
0.0060
0.0052
0.0045
0.0039
0.0034
0.0029
0.0025
0.0022
0.0019
0.0016
0.0014
0.0012
0.0010
0.0009
0.0007
0.0006
0.0005
0.0005
0.0004
0.0003
0.0003
0.0002
0.0002
0.0002
0.0001
0.0001
0.0001
0.0001
0.0001
0.0001
0.0000
0.0000
0.0000
0.0000
0.0000
0.0000
0.0000
0.0000
0.0000
0.0000
0.0000
0.0000
94.1957
94.1957
96.2657
101.4776
110.4697
121.2471
126.6304
126.7467
123.6910
119.2084
114.3453
109.6334
105.3045
101.4333
98.0185
95.0252
92.4065
90.1136
88.1004
86.3256
84.7531
83.3516
82.0944
80.9591
79.9265
78.9805
78.1076
77.2963
76.5372
75.8220
75.1441
74.4977
73.8781
73.2811
72.7034
72.1421
71.5947
71.0591
70.5337
70.0170
69.5076
69.0045
68.5069
68.0139
67.5248
67.0392
66.5565
66.0763
65.5983
65.1222
64.6476
64.1745
63.7026
63.2317
62.7617
62.2924
61.8239
61.3559
60.8884
60.4214
59.9547
59.4884
59.0224
58.5566
58.0910
57.6256
57.1604
56.6953
56.2304
55.7655
55.3007
54.8361
54.3715
53.9069
53.4424
52.9780
52.5136
52.0492
51.5849
51.1206
50.6563
50.1921
49.7278
49.2636
48.7993
48.3351
47.8709
47.4067
46.9425
46.4783
46.0141
45.5499
45.0857
44.6215
44.1573
43.6930
43.2288
42.7645
42.3003
41.8360
41.3717
40.9074
40.4430
39.9787
39.5143
39.0499
38.5854
38.1210
37.6565
37.1920
36.7274
36.2628
35.7982
35.3335
34.8688
34.4041
33.9394
33.4746
33.0098
32.5450
32.0802
31.6153
31.1505
30.6857
30.2210
29.7563
29.2916
28.8271
28.3626
27.8983
27.4342
26.9702
26.5065
26.0431
25.5800
25.1173
24.6550
24.1933
23.7321
23.2715
22.8117
22.3526
21.8945
21.4373
20.9813
20.5264
20.0729
19.6209
19.1704
18.7217
18.2748
17.8300
17.3874
16.9471
16.5094
16.0744
15.6423
15.2133
14.7876
14.3654
13.9468
13.5322
13.1217
12.7155
12.3138
11.9169
11.5249
11.1381
10.7567
10.3809
10.0109
9.6468
9.2890
8.9375
8.5925
8.2543
7.9229
7.5986
7.2815
6.9716
6.6692
6.3743
6.0871
5.8076
5.5359
5.2720
5.0160
4.7679
4.5278
4.2956
4.0713
3.8549
3.6464
3.4456
3.2526
3.0672
2.8894
2.7190
2.5560
2.4001
2.2514
2.1095
1.9744
1.8459
1.7239
1.6081
1.4984
1.3946
1.2965
1.2039
1.1166
1.0345
0.9572
0.8847
0.8167
0.7530
0.6934
0.6378
0.5859
0.5376
0.4927
0.4510
0.4122
0.3764
0.3432
0.3126
0.2843
0.2583
0.2343
0.2123
0.1921
0.1736
0.1567
0.1413
0.1272
0.1143
0.1027
0.0921
0.0824
0.0737
0.0659
0.0587
0.0523
0.0466
0.0414
0.0367
0.0325
0.0288
0.0254
0.0224
0.0198
0.0174
0.0153
0.0134
0.0118
0.0103
0.0090
0.0079
0.0068
0.0060
0.0052
0.0045
0.0039
0.0034
0.0029
0.0025
0.0022
0.0019
0.0016
0.0014
0.0012
0.0010
0.0009
0.0007
0.0006
0.0005
0.0005
0.0004
0.0003
0.0003
0.0002
0.0002
0.0002
0.0001
0.0001
0.0001
0.0001
0.0001
0.0001
0.0000
0.0000
0.0000
0.0000
0.0000
0.0000
0.0000
0.0000
0.0000
0.0000
0.0000
0.0000
105.2970
105.2970
109.7227
121.6215
144.4344
174.7464
180.1268
172.4820
160.7364
148.8177
138.0773
128.8137
120.9517
114.3090
108.6923
103.9286
99.8710
96.3982
93.4101
90.8249
88.5751
86.6052
84.8694
83.3297
81.9547
80.7180
79.5979
78.5761
77.6373
76.7686
75.9593
75.2005
74.4844
73.8046
73.1557
72.5332
71.9331
71.3522
70.7877
70.2371
69.6986
69.1703
68.6509
68.1390
67.6336
67.1338
66.6389
66.1481
65.6608
65.1766
64.6951
64.2159
63.7387
63.2632
62.7892
62.3165
61.8449
61.3743
60.9045
60.4355
59.9671
59.4992
59.0318
58.5649
58.0983
57.6320
57.1660
56.7002
56.2347
55.7693
55.3041
54.8390
54.3740
53.9092
53.4444
52.9797
52.5151
52.0506
51.5861
51.1216
50.6572
50.1929
49.7285
49.2642
48.7999
48.3356
47.8714
47.4071
46.9428
46.4786
46.0144
45.5501
45.0859
44.6217
44.1574
43.6932
43.2289
42.7647
42.3004
41.8361
41.3718
40.9074
40.4431
39.9787
39.5143
39.0499
38.5855
38.1210
37.6565
37.1920
36.7274
36.2628
35.7982
35.3335
34.8688
34.4041
33.9394
33.4746
33.0098
32.5450
32.0802
31.6153
31.1505
30.6857
30.2210
29.7563
29.2916
28.8271
28.3626
27.8983
27.4342
26.9702
26.5065
26.0431
25.5800
25.1173
24.6550
24.1933
23.7321
23.2715
22.8117
22.3526
21.8945
21.4373
20.9813
20.5264
20.0729
19.6209
19.1704
18.7217
18.2748
17.8300
17.3874
16.9471
16.5094
16.0744
15.6423
15.2133
14.7876
14.3654
13.9468
13.5322
13.1217
12.7155
12.3138
11.9169
11.5249
11.1381
10.7567
10.3809
10.0109
9.6468
9.2890
8.9375
8.5925
8.2543
7.9229
7.5986
7.2815
6.9716
6.6692
6.3743
6.0871
5.8076
5.5359
5.2720
5.0160
4.7679
4.5278
4.2956
4.0713
3.8549
3.6464
3.4456
3.2526
3.0672
2.8894
2.7190
2.5560
2.4001
2.2514
2.1095
1.9744
1.8459
1.7239
1.6081
1.4984
1.3946
1.2965
1.2039
1.1166
1.0345
0.9572
0.8847
0.8167
0.7530
0.6934