# vtk DataFile Version 5.0
Example 3D regular grid VTK file.
ASCII
DATASET UNSTRUCTURED_GRID
POINTS 90601 float
0 0 0
0 10 0
0 20 0
0 30 0
0 40 0
0 50 0
0 60 0
0 70 0
0 80 0
0 90 0
0 100 0
0 110 0
0 120 0
0 130 0
0 140 0
0 150 0
0 160 0
0 170 0
0 180 0
0 190 0
0 200 0
0 210 0
0 220 0
0 230 0
0 240 0
0 250 0
0 260 0
0 270 0
0 280 0
0 290 0
0 300 0
0 310 0
0 320 0
0 330 0
0 340 0
0 350 0
0 360 0
0 370 0
0 380 0
0 390 0
0 400 0
0 410 0
0 420 0
0 430 0
0 440 0
0 450 0
0 460 0
0 470 0
0 480 0
0 490 0
0 500 0
0 510 0
0 520 0
0 530 0
0 540 0
0 550 0
0 560 0
0 570 0
0 580 0
0 590 0
0 600 0
0 610 0
0 620 0
0 630 0
0 640 0
0 650 0
0 660 0
0 670 0
0 680 0
0 690 0
0 700 0
0 710 0
0 720 0
0 730 0
0 740 0
0 750 0
0 760 0
0 770 0
0 780 0
0 790 0
0 800 0
0 810 0
0 820 0
0 830 0
0 840 0
0 850 0
0 860 0
0 870 0
0 880 0
0 890 0
0 900 0
0 910 0
0 920 0
0 930 0
0 940 0
0 950 0
0 960 0
0 970 0
0 980 0
0 990 0
0 1000 0
0 1010 0
0 1020 0
0 1030 0
0 1040 0
0 1050 0
0 1060 0
0 1070 0
0 1080 0
0 1090 0
0 1100 0
0 1110 0
0 1120 0
0 1130 0
0 1140 0
0 1150 0
0 1160 0
0 1170 0
0 1180 0
0 1190 0
0 1200 0
0 1210 0
0 1220 0
0 1230 0
0 1240 0
0 1250 0
0 1260 0
0 1270 0
0 1280 0
0 1290 0
0 1300 0
0 1310 0
0 1320 0
0 1330 0
0 1340 0
0 1350 0
0 1360 0
0 1370 0
0 1380 0
0 1390 0
0 1400 0
0 1410 0
0 1420 0
0 1430 0
0 1440 0
0 1450 0
0 1460 0
0 1470 0
0 1480 0
0 1490 0
0 1500 0
0 1510 0
0 1520 0
0 1530 0
0 1540 0
0 1550 0
0 1560 0
0 1570 0
0 1580 0
0 1590 0
0 1600 0
0 1610 0
0 1620 0
0 1630 0
0 1640 0
0 1650 0
0 1660 0
0 1670 0
0 1680 0
0 1690 0
0 1700 0
0 1710 0
0 1720 0
0 1730 0
0 1740 0
0 1750 0
0 1760 0
0 1770 0
0 1780 0
0 1790 0
0 1800 0
0 1810 0
0 1820 0
0 1830 0
0 1840 0
0 1850 0
0 1860 0
0 1870 0
0 1880 0
0 1890 0
0 1900 0
0 1910 0
0 1920 0
0 1930 0
0 1940 0
0 1950 0
0 1960 0
0 1970 0
0 1980 0
0 1990 0
0 2000 0
0 2010 0
0 2020 0
0 2030 0
0 2040 0
0 2050 0
0 2060 0
0 2070 0
0 2080 0
0 2090 0
0 2100 0
0 2110 0
0 2120 0
0 2130 0
0 2140 0
0 2150 0
0 2160 0
0 2170 0
0 2180 0
0 2190 0
0 2200 0
0 2210 0
0 2220 0
0 2230 0
0 2240 0
0 2250 0
0 2260 0
0 2270 0
0 2280 0
0 2290 0
0 2300 0
0 2310 0
0 2320 0
0 2330 0
0 2340 0
0 2350 0
0 2360 0
0 2370 0
0 2380 0
0 2390 0
0 2400 0
0 2410 0
0 2420 0
0 2430 0
0 2440 0
0 2450 0
0 2460 0
0 2470 0
0 2480 0
0 2490 0
0 2500 0
0 2510 0
0 2520 0
0 2530 0
0 2540 0
0 2550 0
0 2560 0
0 2570 0
0 2580 0
0 2590 0
0 2600 0
0 2610 0
0 2620 0
0 2630 0
0 2640 0
0 2650 0
0 2660 0
0 2670 0
0 2680 0
0 2690 0
0 2700 0
0 2710 0
0 2720 0
0 2730 0
0 2740 0
0 2750 0
0 2760 0
0 2770 0
0 2780 0
0 2790 0
0 2800 0
0 2810 0
0 2820 0
0 2830 0
0 2840 0
0 2850 0
0 2860 0
0 2870 0
0 2880 0
0 2890 0
0 2900 0
0 2910 0
0 2920 0
0 2930 0
0 2940 0
0 2950 0
0 2960 0
0 2970 0
0 2980 0
0 2990 0
0 3000 0
10 0 0
10 10 0
10 20 0
10 30 0
10 40 0
10 50 0
10 60 0
10 70 0
10 80 0
10 90 0
10 100 0
10 110 0
10 120 0
10 130 0
10 140 0
10 150 0
10 160 0
10 170 0
10 180 0
10 190 0
10 200 0
10 210 0
10 220 0
10 230 0
10 240 0
10 250 0
10 260 0
10 270 0
10 280 0
10 290 0
10 300 0
10 310 0
10 320 0
10 330 0
10 340 0
10 350 0
10 360 0
10 370 0
10 380 0
10 390 0
10 400 0
10 410 0
10 420 0
10 430 0
10 440 0
10 450 0
10 460 0
10 470 0
10 480 0
10 490 0
10 500 0
10 510 0
10 520 0
10 530 0
10 540 0
10 550 0
10 560 0
10 570 0
10 580 0
10 590 0
10 600 0
10 610 0
10 620 0
10 630 0
10 640 0
10 650 0
10 660 0
10 670 0
10 680 0
10 690 0
10 700 0
10 710 0
10 720 0
10 730 0
10 740 0
10 750 0
10 760 0
10 770 0
10 780 0
10 790 0
10 800 0
10 810 0
10 820 0
10 830 0
10 840 0
10 850 0
10 860 0
10 870 0
10 880 0
10 890 0
10 900 0
10 910 0
10 920 0
10 930 0
10 940 0
10 950 0
10 960 0
10 970 0
10 980 0
10 990 0
10 1000 0
10 1010 0
10 1020 0
10 1030 0
10 1040 0
10 1050 0
10 1060 0
10 1070 0
10 1080 0
10 1090 0
10 1100 0
10 1110 0
10 1120 0
10 1130 0
10 1140 0
10 1150 0
10 1160 0
10 1170 0
10 1180 0
10 1190 0
10 1200 0
10 1210 0
10 1220 0
10 1230 0
10 1240 0
10 1250 0
10 1260 0
10 1270 0
10 1280 0
10 1290 0
10 1300 0
10 1310 0
10 1320 0
10 1330 0
10 1340 0
10 1350 0
10 1360 0
10 1370 0
10 1380 0
10 1390 0
10 1400 0
10 1410 0
10 1420 0
10 1430 0
10 1440 0
10 1450 0
10 1460 0
10 1470 0
10 1480 0
10 1490 0
10 1500 0
10 1510 0
10 1520 0
10 1530 0
10 1540 0
10 1550 0
10 1560 0
10 1570 0
10 1580 0
10 1590 0
10 1600 0
10 1610 0
10 1620 0
10 1630 0
10 1640 0
10 1650 0
10 1660 0
10 1670 0
10 1680 0
10 1690 0
10 1700 0
10 1710 0
10 1720 0
10 1730 0
10 1740 0
10 1750 0
10 1760 0
10 1770 0
10 1780 0
10 1790 0
10 1800 0
10 1810 0
10 1820 0
10 1830 0
10 1840 0
10 1850 0
10 1860 0
10 1870 0
10 1880 0
10 1890 0
10 1900 0
10 1910 0
10 1920 0
10 1930 0
10 1940 0
10 1950 0
10 1960 0
10 1970 0
10 1980 0
10 1990 0
10 2000 0
10 2010 0
10 2020 0
10 2030 0
10 2040 0
10 2050 0
10 2060 0
10 2070 0
10 2080 0
10 2090 0
10 2100 0
10 2110 0
10 2120 0
10 2130 0
10 2140 0
10 2150 0
10 2160 0
10 2170 0
10 2180 0
10 2190 0
10 2200 0
10 2210 0
10 2220 0
10 2230 0
10 2240 0
10 2250 0
10 2260 0
10 2270 0
10 2280 0
10 2290 0
10 2300 0
10 2310 0
10 2320 0
10 2330 0
10 2340 0
10 2350 0
10 2360 0
10 2370 0
10 2380 0
10 2390 0
10 2400 0
10 2410 0
10 2420 0
10 2430 0
10 2440 0
10 2450 0
10 2460 0
10 2470 0
10 2480 0
10 2490 0
10 2500 0
10 2510 0
10 2520 0
10 2530 0
10 2540 0
10 2550 0
10 2560 0
10 2570 0
10 2580 0
10 2590 0
10 2600 0
10 2610 0
10 2620 0
10 2630 0
10 2640 0
10 2650 0
10 2660 0
10 2670 0
10 2680 0
10 2690 0
10 2700 0
10 2710 0
10 2720 0
10 2730 0
10 2740 0
10 2750 0
10 2760 0
10 2770 0
10 2780 0
10 2790 0
10 2800 0
10 2810 0
10 2820 0
10 2830 0
10 2840 0
10 2850 0
10 2860 0
10 2870 0
10 2880 0
10 2890 0
10 2900 0
10 2910 0
10 2920 0
10 2930 0
10 2940 0
10 2950 0
10 2960 0
10 2970 0
10 2980 0
10 2990 0
10 3000 0
20 0 0
20 10 0
20 20 0
20 30 0
20 40 0
20 50 0
20 60 0
20 70 0
20 80 0
20 90 0
20 100 0
20 110 0
20 120 0
20 130 0
20 140 0
20 150 0
20 160 0
20 170 0
20 180 0
20 190 0
20 200 0
20 210 0
20 220 0
20 230 0
20 240 0
20 250 0
20 260 0
20 270 0
20 280 0
20 290 0
20 300 0
20 310 0
20 320 0
20 330 0
20 340 0
20 350 0
20 360 0
20 370 0
20 380 0
20 390 0
20 400 0
20 410 0
20 420 0
20 430 0
20 440 0
20 450 0
20 460 0
20 470 0
20 480 0
20 490 0
20 500 0
20 510 0
20 520 0
20 530 0
20 540 0
20 550 0
20 560 0
20 570 0
20 580 0
20 590 0
20 600 0
20 610 0
20 620 0
20 630 0
20 640 0
20 650 0
20 660 0
20 670 0
20 680 0
20 690 0
20 700 0
20 710 0
20 720 0
20 730 0
20 740 0
20 750 0
20 760 0
20 770 0
20 780 0
20 790 0
20 800 0
20 810 0
20 820 0
20 830 0
20 840 0
20 850 0
20 860 0
20 870 0
20 880 0
20 890 0
20 900 0
20 910 0
20 920 0
20 930 0
20 940 0
20 950 0
20 960 0
20 970 0
20 980 0
20 990 0
20 1000 0
20 1010 0
20 1020 0
20 1030 0
20 1040 0
20 1050 0
20 1060 0
20 1070 0
20 1080 0
20 1090 0
20 1100 0
20 1110 0
20 1120 0
20 1130 0
20 1140 0
20 1150 0
20 1160 0
20 1170 0
20 1180 0
20 1190 0
20 1200 0
20 1210 0
20 1220 0
20 1230 0
20 1240 0
20 1250 0
20 1260 0
20 1270 0
20 1280 0
20 1290 0
20 1300 0
20 1310 0
20 1320 0
20 1330 0
20 1340 0
20 1350 0
20 1360 0
20 1370 0
20 1380 0
20 1390 0
20 1400 0
20 1410 0
20 1420 0
20 1430 0
20 1440 0
20 1450 0
20 1460 0
20 1470 0
20 1480 0
20 1490 0
20 1500 0
20 1510 0
20 1520 0
20 1530 0
20 1540 0
20 1550 0
20 1560 0
20 1570 0
20 1580 0
20 1590 0
20 1600 0
20 1610 0
20 1620 0
20 1630 0
20 1640 0
20 1650 0
20 1660 0
20 1670 0
20 1680 0
20 1690 0
20 1700 0
20 1710 0
20 1720 0
20 1730 0
20 1740 0
20 1750 0
20 1760 0
20 1770 0
20 1780 0
20 1790 0
20 1800 0
20 1810 0
20 1820 0
20 1830 0
20 1840 0
20 1850 0
20 1860 0
20 1870 0
20 1880 0
20 1890 0
20 1900 0
20 1910 0
20 1920 0
20 1930 0
20 1940 0
20 1950 0
20 1960 0
20 1970 0
20 1980 0
20 1990 0
20 2000 0
20 2010 0
20 2020 0
20 2030 0
20 2040 0
20 2050 0
20 2060 0
20 2070 0
20 2080 0
20 2090 0
20 2100 0
20 2110 0
20 2120 0
20 2130 0
20 2140 0
20 2150 0
20 2160 0
20 2170 0
20 2180 0
20 2190 0
20 2200 0
20 2210 0
20 2220 0
20 2230 0
20 2240 0
20 2250 0
20 2260 0
20 2270 0
20 2280 0
20 2290 0
20 2300 0
20 2310 0
20 2320 0
20 2330 0
20 2340 0
20 2350 0
20 2360 0
20 2370 0
20 2380 0
20 2390 0
20 2400 0
20 2410 0
20 2420 0
20 2430 0
20 2440 0
20 2450 0
20 2460 0
20 2470 0
20 2480 0
20 2490 0
20 2500 0
20 2510 0
20 2520 0
20 2530 0
20 2540 0
20 2550 0
20 2560 0
20 2570 0
20 2580 0
20 2590 0
20 2600 0
20 2610 0
20 2620 0
20 2630 0
20 2640 0
20 2650 0
20 2660 0
20 2670 0
20 2680 0
20 2690 0
20 2700 0
20 2710 0
20 2720 0
20 2730 0
20 2740 0
20 2750 0
20 2760 0
20 2770 0
20 2780 0
20 2790 0
20 2800 0
20 2810 0
20 2820 0
20 2830 0
20 2840 0
20 2850 0
20 2860 0
20 2870 0
20 2880 0
20 2890 0
20 2900 0
20 2910 0
20 2920 0
20 2930 0
20 2940 0
20 2950 0
20 2960 0
20 2970 0
20 2980 0
20 2990 0
20 3000 0
30 0 0
30 10 0
30 20 0
30 30 0
30 40 0
30 50 0
30 60 0
30 70 0
30 80 0
30 90 0
30 100 0
30 110 0
30 120 0
30 130 0
30 140 0
30 150 0
30 160 0
30 170 0
30 180 0
30 190 0
30 200 0
30 210 0
30 220 0
30 230 0
30 240 0
30 250 0
30 260 0
30 270 0
30 280 0
30 290 0
30 300 0
30 310 0
30 320 0
30 330 0
30 340 0
30 350 0
30 360 0
30 370 0
30 380 0
30 390 0
30 400 0
30 410 0
30 420 0
30 430 0
30 440 0
30 450 0
30 460 0
30 470 0
30 480 0
30 490 0
30 500 0
30 510 0
30 520 0
30 530 0
30 540 0
30 550 0
30 560 0
30 570 0
30 580 0
30 590 0
30 600 0
30 610 0
30 620 0
30 630 0
30 640 0
30 650 0
30 660 0
30 670 0
30 680 0
30 690 0
30 700 0
30 710 0
30 720 0
30 730 0
30 740 0
30 750 0
30 760 0
30 770 0
30 780 0
30 790 0
30 800 0
30 810 0
30 820 0
30 830 0
30 840 0
30 850 0
30 860 0
30 870 0
30 880 0
30 890 0
30 900 0
30 910 0
30 920 0
30 930 0
30 940 0
30 950 0
30 960 0
30 970 0
30 980 0
30 990 0
30 1000 0
30 1010 0
30 1020 0
30 1030 0
30 1040 0
30 1050 0
30 1060 0
30 1070 0
30 1080 0
30 1090 0
30 1100 0
30 1110 0
30 1120 0
30 1130 0
30 1140 0
30 1150 0
30 1160 0
30 1170 0
30 1180 0
30 1190 0
30 1200 0
30 1210 0
30 1220 0
30 1230 0
30 1240 0
30 1250 0
30 1260 0
30 1270 0
30 1280 0
30 1290 0
30 1300 0
30 1310 0
30 1320 0
30 1330 0
30 1340 0
30 1350 0
30 1360 0
30 1370 0
30 1380 0
30 1390 0
30 1400 0
30 1410 0
30 1420 0
30 1430 0
30 1440 0
30 1450 0
30 1460 0
30 1470 0
30 1480 0
30 1490 0
30 1500 0
30 1510 0
30 1520 0
30 1530 0
30 1540 0
30 1550 0
30 1560 0
30 1570 0
30 1580 0
30 1590 0
[...]
POINT_DATA 90601
SCALARS P float
LOOKUP_TABLE default
81.1668
81.1668
81.2038
81.2919
81.4398
81.6465
81.8997
82.1783
82.4580
82.7160
82.9338
83.0990
83.2048
83.2491
83.2331
83.1604
83.0357
82.8643
82.6517
82.4031
82.1232
81.8165
81.4866
81.1370
80.7706
80.3899
79.9969
79.5936
79.1814
78.7617
78.3357
77.9041
77.4680
77.0278
76.5843
76.1379
75.6890
75.2380
74.7852
74.3309
73.8752
73.4184
72.9606
72.5019
72.0425
71.5825
71.1219
70.6609
70.1994
69.7377
69.2756
68.8132
68.3506
67.8879
67.4249
66.9618
66.4986
66.0353
65.5718
65.1083
64.6447
64.1811
63.7174
63.2536
62.7898
62.3260
61.8621
61.3982
60.9343
60.4704
60.0064
59.5424
59.0784
58.6144
58.1504
57.6864
57.2224
56.7583
56.2943
55.8302
55.3662
54.9021
54.4380
53.9739
53.5099
53.0458
52.5817
52.1176
51.6535
51.1894
50.7253
50.2612
49.7971
49.3330
48.8688
48.4047
47.9406
47.4764
47.0123
46.5481
46.0840
45.6198
45.1556
44.6914
44.2272
43.7630
43.2987
42.8345
42.3702
41.9059
41.4416
40.9773
40.5129
40.0486
39.5842
39.1197
38.6553
38.1908
37.7263
37.2618
36.7973
36.3327
35.8681
35.4035
34.9388
34.4742
34.0095
33.5448
33.0802
32.6155
32.1509
31.6863
31.2217
30.7572
30.2928
29.8284
29.3642
28.9001
28.4362
27.9725
27.5090
27.0458
26.5829
26.1203
25.6582
25.1965
24.7354
24.2749
23.8150
23.3559
22.8975
22.4401
21.9837
21.5284
21.0743
20.6216
20.1702
19.7205
19.2724
18.8262
18.3819
17.9398
17.5000
17.0626
16.6279
16.1959
15.7669
15.3410
14.9185
14.4995
14.0843
13.6729
13.2656
12.8627
12.4643
12.0705
11.6817
11.2980
10.9195
10.5466
10.1793
9.8179
9.4625
9.1134
8.7706
8.4343
8.1047
7.7820
7.4662
7.1575
6.8560
6.5618
6.2750
5.9956
5.7238
5.4595
5.2029
4.9540
4.7127
4.4791
4.2531
4.0348
3.8242
3.6210
3.4254
3.2372
3.0564
2.8828
2.7164
2.5570
2.4046
2.2589
2.1198
1.9873
1.8611
1.7410
1.6270
1.5189
1.4164
1.3193
1.2276
1.1410
1.0594
0.9825
0.9101
0.8422
0.7784
0.7187
0.6627
0.6105
0.5617
0.5162
0.4738
0.4344
0.3978
0.3639
0.3325
0.3034
0.2765
0.2517
0.2289
0.2078
0.1885
0.1708
0.1545
0.1397
0.1261
0.1136
0.1023
0.0920
0.0826
0.0741
0.0664
0.0594
0.0531
0.0474
0.0422
0.0376
0.0334
0.0297
0.0263
0.0233
0.0206
0.0182
0.0161
0.0142
0.0125
0.0110
0.0096
0.0084
0.0074
0.0065
0.0056
0.0049
0.0043
0.0037
0.0032
0.0028
0.0024
0.0021
0.0018
0.0016
0.0014
0.0012
0.0010
0.0009
0.0007
0.0006
0.0005
0.0005
0.0004
0.0003
0.0003
0.0002
0.0002
0.0002
0.0001
0.0001
0.0001
0.0001
0.0001
81.1668
81.1668
81.2038
81.2919
81.4398
81.6465
81.8997
82.1783
82.4580
82.7160
82.9338
83.0990
83.2048
83.2491
83.2331
83.1604
83.0357
82.8643
82.6517
82.4031
82.1232
81.8165
81.4866
81.1370
80.7706
80.3899
79.9969
79.5936
79.1814
78.7617
78.3357
77.9041
77.4680
77.0278
76.5843
76.1379
75.6890
75.2380
74.7852
74.3309
73.8752
73.4184
72.9606
72.5019
72.0425
71.5825
71.1219
70.6609
70.1994
69.7377
69.2756
68.8132
68.3506
67.8879
67.4249
66.9618
66.4986
66.0353
65.5718
65.1083
64.6447
64.1811
63.7174
63.2536
62.7898
62.3260
61.8621
61.3982
60.9343
60.4704
60.0064
59.5424
59.0784
58.6144
58.1504
57.6864
57.2224
56.7583
56.2943
55.8302
55.3662
54.9021
54.4380
53.9739
53.5099
53.0458
52.5817
52.1176
51.6535
51.1894
50.7253
50.2612
49.7971
49.3330
48.8688
48.4047
47.9406
47.4764
47.0123
46.5481
46.0840
45.6198
45.1556
44.6914
44.2272
43.7630
43.2987
42.8345
42.3702
41.9059
41.4416
40.9773
40.5129
40.0486
39.5842
39.1197
38.6553
38.1908
37.7263
37.2618
36.7973
36.3327
35.8681
35.4035
34.9388
34.4742
34.0095
33.5448
33.0802
32.6155
32.1509
31.6863
31.2217
30.7572
30.2928
29.8284
29.3642
28.9001
28.4362
27.9725
27.5090
27.0458
26.5829
26.1203
25.6582
25.1965
24.7354
24.2749
23.8150
23.3559
22.8975
22.4401
21.9837
21.5284
21.0743
20.6216
20.1702
19.7205
19.2724
18.8262
18.3819
17.9398
17.5000
17.0626
16.6279
16.1959
15.7669
15.3410
14.9185
14.4995
14.0843
13.6729
13.2656
12.8627
12.4643
12.0705
11.6817
11.2980
10.9195
10.5466
10.1793
9.8179
9.4625
9.1134
8.7706
8.4343
8.1047
7.7820
7.4662
7.1575
6.8560
6.5618
6.2750
5.9956
5.7238
5.4595
5.2029
4.9540
4.7127
4.4791
4.2531
4.0348
3.8242
3.6210
3.4254
3.2372
3.0564
2.8828
2.7164
2.5570
2.4046
2.2589
2.1198
1.9873
1.8611
1.7410
1.6270
1.5189
1.4164
1.3193
1.2276
1.1410
1.0594
0.9825
0.9101
0.8422
0.7784
0.7187
0.6627
0.6105
0.5617
0.5162
0.4738
0.4344
0.3978
0.3639
0.3325
0.3034
0.2765
0.2517
0.2289
0.2078
0.1885
0.1708
0.1545
0.1397
0.1261
0.1136
0.1023
0.0920
0.0826
0.0741
0.0664
0.0594
0.0531
0.0474
0.0422
0.0376
0.0334
0.0297
0.0263
0.0233
0.0206
0.0182
0.0161
0.0142
0.0125
0.0110
0.0096
0.0084
0.0074
0.0065
0.0056
0.0049
0.0043
0.0037
0.0032
0.0028
0.0024
0.0021
0.0018
0.0016
0.0014
0.0012
0.0010
0.0009
0.0007
0.0006
0.0005
0.0005
0.0004
0.0003
0.0003
0.0002
0.0002
0.0002
0.0001
0.0001
0.0001
0.0001
0.0001
81.4581
81.4581
81.5068
81.6224
81.8138
82.0744
82.3813
82.7024
83.0059
83.2667
83.4685
83.6033
83.6693
83.6688
83.6068
83.4891
83.3223
83.1126
82.8656
82.5867
82.2804
81.9508
81.6013
81.2348
80.8540
80.4610
80.0576
79.6454
79.2256
78.7995
78.3680
77.9318
77.4917
77.0482
76.6018
76.1529
75.7019
75.2491
74.7948
74.3391
73.8823
73.4245
72.9658
72.5065
72.0465
71.5859
71.1249
70.6634
70.2017
69.7396
69.2772
68.8147
68.3519
67.8890
67.4259
66.9627
66.4993
66.0359
65.5724
65.1088
64.6452
64.1815
63.7177
63.2539
62.7901
62.3262
61.8623
61.3984
60.9345
60.4705
60.0065
59.5425
59.0785
58.6145
58.1505
57.6865
57.2224
56.7584
56.2943
55.8303
55.3662
54.9021
54.4380
53.9740
53.5099
53.0458
52.5817
52.1176
51.6535
51.1894
50.7253
50.2612
49.7971
49.3330
48.8688
48.4047
47.9406
47.4764
47.0123
46.5481
46.0840
45.6198
45.1556
44.6914
44.2272
43.7630
43.2987
42.8345
42.3702
41.9059
41.4416
40.9773
40.5129
40.0486
39.5842
39.1197
38.6553
38.1908
37.7263
37.2618
36.7973
36.3327
35.8681
35.4035
34.9388
34.4742
34.0095
33.5448
33.0802
32.6155
32.1509
31.6863
31.2217
30.7572
30.2928
29.8284
29.3642
28.9001
28.4362
27.9725
27.5090
27.0458
26.5829
26.1203
25.6582
25.1965
24.7354
24.2749
23.8150
23.3559
22.8975
22.4401
21.9837
21.5284
21.0743
20.6216
20.1702
19.7205
19.2724
18.8262
18.3819
17.9398
17.5000
17.0626
16.6279
16.1959
15.7669
15.3410
14.9185
14.4995
14.0843
13.6729
13.2656
12.8627
12.4643
12.0705
11.6817
11.2980
10.9195
10.5466
10.1793
9.8179
9.4625
9.1134
8.7706
8.4343
8.1047
7.7820
7.4662
7.1575
6.8560
6.5618
6.2750
5.9956
5.7238
5.4595
5.2029
4.9540
4.7127
4.4791
4.2531
4.0348
3.8242
3.6210
3.4254
3.2372
3.0564
2.8828
2.7164
2.5570
2.4046
2.2589
2.1198
1.9873
1.8611
1.7410
1.6270
1.5189
1.4164
1.3193
1.2276
1.1410
1.0594
0.9825
0.9101
0.8422
0.7784
0.7187
0.6627
0.6105
0.5617
0.5162
0.4738
0.4344
0.3978
0.3639
0.3325
0.3034
0.2765
0.2517
0.2289
0.2078
0.1885
0.1708
0.1545
0.1397
0.1261
0.1136
0.1023
0.0920
0.0826
0.0741
0.0664
0.0594
0.0531
0.0474
0.0422
0.0376
0.0334
0.0297
0.0263
0.0233
0.0206
0.0182
0.0161
0.0142
0.0125
0.0110
0.0096
0.0084
0.0074
0.0065
0.0056
0.0049
0.0043
0.0037
0.0032
0.0028
0.0024
0.0021
0.0018
0.0016
0.0014
0.0012
0.0010
0.0009
0.0007
0.0006
0.0005
0.0005
0.0004
0.0003
0.0003
0.0002
0.0002
0.0002
0.0001
0.0001
0.0001
0.0001
0.0001
82.2347
82.2347
82.3201
82.5209
82.8466
83.2711
83.7345
84.1698
84.5265
84.7783
84.9193
84.9567
84.9036
84.7748
84.5844
84.3445
84.0648
83.7533
83.4162
83.0584
82.6837
82.2950
81.8949
81.4852
81.0675
80.6431
80.2129
79.7780
79.3389
78.8964
78.4508
78.0027
77.5524
77.1003
76.6465
76.1913
75.7350
75.2776
74.8193
74.3602
73.9005
73.4402
72.9794
72.5182
72.0566
71.5947
71.1325
70.6701
70.2074
69.7446
69.2816
68.8184
68.3552
67.8918
67.4284
66.9648
66.5012
66.0376
65.5738
65.1101
64.6463
64.1824
63.7185
63.2546
62.7907
62.3268
61.8628
61.3988
60.9348
60.4708
60.0068
59.5428
59.0788
58.6147
58.1507
57.6866
57.2225
56.7585
56.2944
55.8303
55.3663
54.9022
54.4381
53.9740
53.5099
53.0458
52.5817
52.1176
51.6535
51.1894
50.7253
50.2612
49.7971
49.3330
48.8689
48.4047
47.9406
47.4764
47.0123
46.5481
46.0840
45.6198
45.1556
44.6914
44.2272
43.7630
43.2987
42.8345
42.3702
41.9059
41.4416
40.9773
40.5129
40.0486
39.5842
39.1197
38.6553
38.1908
37.7263
37.2618
36.7973
36.3327
35.8681
35.4035
34.9388
34.4742
34.0095
33.5448
33.0802
32.6155
32.1509
31.6863
31.2217
30.7572
30.2928
29.8284
29.3642
28.9001
28.4362
27.9725
27.5090
27.0458
26.5829
26.1203
25.6582
25.1965
24.7354
24.2749
23.8150
23.3559
22.8975
22.4401
21.9837
21.5284
21.0743
20.6216
20.1702
19.7205
19.2724
18.8262
18.3819
17.9398
17.5000
17.0626
16.6279
16.1959
15.7669
15.3410
14.9185
14.4995
14.0843
13.6729
13.2656
12.8627
12.4643
12.0705
11.6817
11.2980
10.9195
10.5466
10.1793
9.8179
9.4625
9.1134
8.7706
8.4343
8.1047
7.7820
7.4662
7.1575
6.8560
6.5618
6.2750
5.9956
5.7238
5.4595
5.2029
4.9540
4.7127
4.4791
4.2531
4.0348
3.8242
3.6210
3.4254
3.2372
3.0564
2.8828
2.7164
2.5570
2.4046
2.2589
2.1198
1.9873
1.8611
1.7410
1.6270
1.5189
1.4164
1.3193
1.2276
1.1410
1.0594
0.9825
0.9101
0.8422
0.7784
0.7187
0.6627
0.6105
0.5617
0.5162
0.4738
0.4344
0.3978
0.3639
0.3325
0.3034
0.2765
0.2517
0.2289
0.2078
0.1885
0.1708
0.1545
0.1397
0.1261
0.1136
0.1023
0.0920
0.0826
0.0741
0.0664
0.0594
0.0531
0.0474
0.0422
0.0376
0.0334
0.0297
0.0263
0.0233
0.0206
0.0182
0.0161
0.0142
0.0125
0.0110
0.0096
0.0084
0.0074
0.0065
0.0056
0.0049
0.0043
0.0037
0.0032
0.0028
0.0024
0.0021
0.0018
0.0016
0.0014
0.0012
0.0010
0.0009
0.0007
0.0006
0.0005
0.0005
0.0004
0.0003
0.0003
0.0002
0.0002
0.0002
0.0001
0.0001
0.0001
0.0001
0.0001
83.8031
83.8031
83.9815
84.4000
85.0692
85.9036
86.7285
87.3892
87.8075
87.9758
87.9277
87.7120
87.3768
86.9616
86.4966
86.0028
85.4945
84.9807
84.4667
83.9557
83.4491
82.9476
82.4510
81.9591
81.4715
80.9876
80.5069
80.0290
79.5535
79.0799
78.6079
78.1373
77.6679
77.1993
76.7316
76.2645
75.7979
75.3318
74.8660
74.4005
73.9353
73.4703
73.0054
72.5407
72.0761
71.6116
71.1471
70.6827
70.2184
69.7541
69.2899
68.8257
68.3615
67.8973
67.4331
66.9690
66.5048
66.0407
65.5766
65.1125
64.6484
64.1842
63.7201
63.2560
62.7919
62.3278
61.8637
61.3996
60.9356
60.4715
60.0074
59.5433
59.0792
58.6151
58.1510
57.6869
57.2228
56.7587
56.2946
55.8305
55.3664
54.9023
54.4382
53.9741
53.5100
53.0459
52.5818
52.1177
51.6536
51.1895
50.7254
50.2613
49.7971
49.3330
48.8689
48.4047
47.9406
47.4765
47.0123
46.5481
46.0840
45.6198
45.1556
44.6914
44.2272
43.7630
43.2987
42.8345
42.3702
41.9059
41.4416
40.9773
40.5129
40.0486
39.5842
39.1197
38.6553
38.1908
37.7263
37.2618
36.7973
36.3327
35.8681
35.4035
34.9388
34.4742
34.0095
33.5448
33.0802
32.6155
32.1509
31.6863
31.2217
30.7572
30.2928
29.8284
29.3642
28.9001
28.4362
27.9725
27.5090
27.0458
26.5829
26.1203
25.6582
25.1965
24.7354
24.2749
23.8150
23.3559
22.8975
22.4401
21.9837
21.5284
21.0743
20.6216
20.1702
19.7205
19.2724
18.8262
18.3819
17.9398
17.5000
17.0626
16.6279
16.1959
15.7669
15.3410
14.9185
14.4995
14.0843
13.6729
13.2656
12.8627
12.4643
12.0705
11.6817
11.2980
10.9195
10.5466
10.1793
9.8179
9.4625
9.1134
8.7706
8.4343
8.1047
7.7820
7.4662
7.1575
6.8560
6.5618
6.2750
5.9956
5.7238
5.4595
5.2029
4.9540
4.7127
4.4791
4.2531
4.0348
3.8242
3.6210
3.4254
3.2372
3.0564
2.8828
2.7164
2.5570
2.4046
2.2589
2.1198
1.9873
1.8611
1.7410
1.6270
1.5189
1.4164
1.3193
1.2276
1.1410
1.0594
0.9825
0.9101
0.8422
0.7784
0.7187
0.6627
0.6105
0.5617
0.5162
0.4738
0.4344
0.3978
0.3639
0.3325
0.3034
0.2765
0.2517
0.2289
0.2078
0.1885
0.1708
0.1545
0.1397
0.1261
0.1136
0.1023
0.0920
0.0826
0.0741
0.0664
0.0594
0.0531
0.0474
0.0422
0.0376
0.0334
0.0297
0.0263
0.0233
0.0206
0.0182
0.0161
0.0142
0.0125
0.0110
0.0096
0.0084
0.0074
0.0065
0.0056
0.0049
0.0043
0.0037
0.0032
0.0028
0.0024
0.0021
0.0018
0.0016
0.0014
0.0012
0.0010
0.0009
0.0007
0.0006
0.0005
0.0005
0.0004
0.0003
0.0003
0.0002
0.0002
0.0002
0.0001
0.0001
0.0001
0.0001
0.0001
86.6305
86.6305
87.0319
87.9812
89.4994
91.3252
92.9153
93.9229
94.2827
94.0977
93.5249
92.7111
91.7697
90.7792
89.7888
88.8274
87.9095
87.0408
86.2218
85.4499
84.7208
84.0300
83.3726
82.7443
82.1408
81.5585
80.9944
80.4455
79.9097
79.3848
78.8691
78.3613
77.8601
77.3645
76.8736
76.3867
75.9032
75.4225
74.9443
74.4681
73.9937
73.5208
73.0491
72.5785
72.1089
71.6400
71.1718
70.7041
70.2370
69.7703
69.3039
68.8379
68.3721
67.9065
67.4412
66.9760
66.5110
66.0461
65.5813
65.1165
64.6519
64.1874
63.7229
63.2584
62.7940
62.3297
61.8653
61.4010
60.9368
60.4725
60.0083
59.5441
59.0799
58.6157
58.1515
57.6874
57.2232
56.7591
56.2949
55.8308
55.3667
54.9025
54.4384
53.9743
53.5102
53.0460
52.5819
52.1178
51.6537
51.1896
50.7254
50.2613
49.7972
49.3331
48.8689
48.4048
47.9406
47.4765
47.0123
46.5482
46.0840
45.6198
45.1556
44.6914
44.2272
43.7630
43.2987
42.8345
42.3702
41.9059
41.4416
40.9773
40.5129
40.0486
39.5842
39.1197
38.6553
38.1908
37.7263
37.2618
36.7973
36.3327
35.8681
35.4035
34.9388
34.4742
34.0095
33.5448
33.0802
32.6155
32.1509
31.6863
31.2217
30.7572
30.2928
29.8284
29.3642
28.9001
28.4362
27.9725
27.5090
27.0458
26.5829
26.1203
25.6582
25.1965
24.7354
24.2749
23.8150
23.3559
22.8975
22.4401
21.9837
21.5284
21.0743
20.6216
20.1702
19.7205
19.2724
18.8262
18.3819
17.9398
17.5000
17.0626
16.6279
16.1959
15.7669
15.3410
14.9185
14.4995
14.0843
13.6729
13.2656
12.8627
12.4643
12.0705
11.6817
11.2980
10.9195
10.5466
10.1793
9.8179
9.4625
9.1134
8.7706
8.4343
8.1047
7.7820
7.4662
7.1575
6.8560
6.5618
6.2750
5.9956
5.7238
5.4595
5.2029
4.9540
4.7127
4.4791
4.2531
4.0348
3.8242
3.6210
3.4254
3.2372
3.0564
2.8828
2.7164
2.5570
2.4046
2.2589
2.1198
1.9873
1.8611
1.7410
1.6270
1.5189
1.4164
1.3193
1.2276
1.1410
1.0594
0.9825
0.9101
0.8422
0.7784
0.7187
0.6627
0.6105
0.5617
0.5162
0.4738
0.4344
0.3978
0.3639
0.3325
0.3034
0.2765
0.2517
0.2289
0.2078
0.1885
0.1708
0.1545
0.1397
0.1261
0.1136
0.1023
0.0920
0.0826
0.0741
0.0664
0.0594
0.0531
0.0474
0.0422
0.0376
0.0334
0.0297
0.0263
0.0233
0.0206
0.0182
0.0161
0.0142
0.0125
0.0110
0.0096
0.0084
0.0074
0.0065
0.0056
0.0049
0.0043
0.0037
0.0032
0.0028
0.0024
0.0021
0.0018
0.0016
0.0014
0.0012
0.0010
0.0009
0.0007
0.0006
0.0005
0.0005
0.0004
0.0003
0.0003
0.0002
0.0002
0.0002
0.0001
0.0001
0.0001
0.0001
0.0001
91.3838
91.3838
92.3031
94.5256
98.1562
102.4354
105.5118
106.7653
106.4638
105.1335
103.2439
101.1252
98.9809
96.9236
95.0080
93.2539
91.6619
90.2220
88.9200
87.7400
86.6662
85.6840
84.7803
83.9435
83.1635
82.4316
81.7404
81.0836
80.4560
79.8530
79.2708
78.7062
78.1565
77.6195
77.0931
76.5758
76.0663
75.5633
75.0659
74.5732
74.0846
73.5994
73.1172
72.6376
72.1601
71.6844
71.2103
70.7377
70.2661
69.7956
69.3260
68.8571
68.3888
67.9211
67.4539
66.9871
66.5206
66.0545
65.5886
65.1230
64.6575
64.1923
63.7272
63.2622
62.7973
62.3326
61.8679
61.4033
60.9387
60.4742
60.0098
59.5454
59.0810
58.6167
58.1524
57.6882
57.2239
56.7597
56.2955
55.8313
55.3671
54.9029
54.4387
53.9746
53.5104
53.0463
52.5821
52.1180
51.6538
51.1897
50.7256
50.2614
49.7973
49.3331
48.8690
48.4048
47.9407
47.4765
47.0124
46.5482
46.0840
45.6198
45.1557
44.6915
44.2272
43.7630
43.2988
42.8345
42.3702
41.9059
41.4416
40.9773
40.5129
40.0486
39.5842
39.1198
38.6553
38.1908
37.7263
37.2618
36.7973
36.3327
35.8681
35.4035
34.9388
34.4742
34.0095
33.5448
33.0802
32.6155
32.1509
31.6863
31.2217
30.7572
30.2928
29.8284
29.3642
28.9001
28.4362
27.9725
27.5090
27.0458
26.5829
26.1203
25.6582
25.1965
24.7354
24.2749
23.8150
23.3559
22.8975
22.4401
21.9837
21.5284
21.0743
20.6216
20.1702
19.7205
19.2724
18.8262
18.3819
17.9398
17.5000
17.0626
16.6279
16.1959
15.7669
15.3410
14.9185
14.4995
14.0843
13.6729
13.2656
12.8627
12.4643
12.0705
11.6817
11.2980
10.9195
10.5466
10.1793
9.8179
9.4625
9.1134
8.7706
8.4343
8.1047
7.7820
7.4662
7.1575
6.8560
6.5618
6.2750
5.9956
5.7238
5.4595
5.2029
4.9540
4.7127
4.4791
4.2531
4.0348
3.8242
3.6210
3.4254
3.2372
3.0564
2.8828
2.7164
2.5570
2.4046
2.2589
2.1198
1.9873
1.8611
1.7410
1.6270
1.5189
1.4164
1.3193
1.2276
1.1410
1.0594
0.9825
0.9101
0.8422
0.7784
0.7187
0.6627
0.6105
0.5617
0.5162
0.4738
0.4344
0.3978
0.3639
0.3325
0.3034
0.2765
0.2517
0.2289
0.2078
0.1885
0.1708
0.1545
0.1397
0.1261
0.1136
0.1023
0.0920
0.0826
0.0741
0.0664
0.0594
0.0531
0.0474
0.0422
0.0376
0.0334
0.0297
0.0263
0.0233
0.0206
0.0182
0.0161
0.0142
0.0125
0.0110
0.0096
0.0084
0.0074
0.0065
0.0056
0.0049
0.0043
0.0037
0.0032
0.0028
0.0024
0.0021
0.0018
0.0016
0.0014
0.0012
0.0010
0.0009
0.0007
0.0006
0.0005
0.0005
0.0004
0.0003
0.0003
0.0002
0.0002
0.0002
0.0001
0.0001
0.0001
0.0001
0.0001
98.9070
98.9070
100.9770
106.1889
115.1811
125.9584
131.3417
131.4580
128.4023
123.9197
119.0566
114.3447
110.0158
106.1446
102.7298
99.7365
97.1178
94.8249
92.8117
91.0369
89.4644
88.0629
86.8057
85.6704
84.6378
83.6918
82.8189
82.0076
81.2485
80.5333
79.8554
79.2090
78.5894
77.9924
77.4147
76.8534
76.3060
75.7705
75.2450
74.7283
74.2189
73.7158
73.2182
72.7252
72.2361
71.7505
71.2678
70.7876
70.3096
69.8335
69.3589
68.8858
68.4139
67.9430
67.4730
67.0037
66.5352
66.0672
65.5997
65.1327
64.6660
64.1997
63.7337
63.2679
62.8023
62.3369
61.8717
61.4066
60.9417
60.4768
60.0121
59.5474
59.0828
58.6183
58.1538
57.6893
57.2250
56.7606
56.2963
55.8320
55.3677
54.9034
54.4392
53.9750
53.5108
53.0466
52.5824
52.1182
51.6541
51.1899
50.7257
50.2616
49.7974
49.3333
48.8691
48.4049
47.9408
47.4766
47.0124
46.5483
46.0841
45.6199
45.1557
44.6915
44.2273
43.7630
43.2988
42.8345
42.3703
41.9060
41.4416
40.9773
40.5130
40.0486
39.5842
39.1198
38.6553
38.1908
37.7263
37.2618
36.7973
36.3327
35.8681
35.4035
34.9388
34.4742
34.0095
33.5448
33.0802
32.6155
32.1509
31.6863
31.2217
30.7572
30.2928
29.8284
29.3642
28.9001
28.4362
27.9725
27.5090
27.0458
26.5829
26.1203
25.6582
25.1965
24.7354
24.2749
23.8150
23.3559
22.8975
22.4401
21.9837
21.5284
21.0743
20.6216
20.1702
19.7205
19.2724
18.8262
18.3819
17.9398
17.5000
17.0626
16.6279
16.1959
15.7669
15.3410
14.9185
14.4995
14.0843
13.6729
13.2656
12.8627
12.4643
12.0705
11.6817
11.2980
10.9195
10.5466
10.1793
9.8179
9.4625
9.1134
8.7706
8.4343
8.1047
7.7820
7.4662
7.1575
6.8560
6.5618
6.2750
5.9956
5.7238
5.4595
5.2029
4.9540
4.7127
4.4791
4.2531
4.0348
3.8242
3.6210
3.4254
3.2372
3.0564
2.8828
2.7164
2.5570
2.4046
2.2589
2.1198
1.9873
1.8611
1.7410
1.6270
1.5189
1.4164
1.3193
1.2276
1.1410
1.0594
0.9825
0.9101
0.8422
0.7784
0.7187
0.6627
0.6105
0.5617
0.5162
0.4738
0.4344
0.3978
0.3639
0.3325
0.3034
0.2765
0.2517
0.2289
0.2078
0.1885
0.1708
0.1545
0.1397
0.1261
0.1136
0.1023
0.0920
0.0826
0.0741
0.0664
0.0594
0.0531
0.0474
0.0422
0.0376
0.0334
0.0297
0.0263
0.0233
0.0206
0.0182
0.0161
0.0142
0.0125
0.0110
0.0096
0.0084
0.0074
0.0065
0.0056
0.0049
0.0043
0.0037
0.0032
0.0028
0.0024
0.0021
0.0018
0.0016
0.0014
0.0012
0.0010
0.0009
0.0007
0.0006
0.0005
0.0005
0.0004
0.0003
0.0003
0.0002
0.0002
0.0002
0.0001
0.0001
0.0001
0.0001
0.0001
110.0083
110.0083
114.4340
126.3328
149.1457
179.4577
184.8381
177.1933
165.4477
153.5290
142.7886
133.5251
125.6631
119.0203
113.4036
108.6399
104.5823
101.1095
98.1214
95.5362
93.2864
91.3165
89.5807
88.0410
86.6660
85.4294
84.3092
83.2874
82.3486
81.4799
80.6707
79.9118
79.1957
78.5159
77.8670
77.2445
76.6444
76.0635
75.4990
74.9484
74.4099
73.8816
73.3622
72.8503
72.3449
71.8451
71.3502
70.8594
70.3721
69.8880
69.4065
68.9273
68.4500
67.9746
67.5006
67.0278
66.5563
66.0856
65.6159
65.1468
64.6784
64.2105
63.7432
63.2762
62.8096
62.3433
61.8773
61.4115
60.9460
60.4806
60.0154
59.5503
59.0854
58.6205
58.1558
57.6911
57.2265
56.7619
56.2975
55.8330
55.3686
54.9043
54.4399
53.9756
53.5113
53.0471
52.5828
52.1186
51.6544
51.1902
50.7260
50.2618
49.7976
49.3334
48.8693
48.4051
47.9409
47.4767
47.0125
46.5483
46.0842
45.6200
45.1558
44.6915
44.2273
43.7631
43.2988
42.8346
42.3703
41.9060
41.4417
40.9773
40.5130
40.0486
39.5842
39.1198
38.6553
38.1908
37.7263
37.2618
36.7973
36.3327
35.8681
35.4035
34.9388
34.4742
34.0095
33.5448
33.0802
32.6155
32.1509
31.6863
31.2217
30.7572
30.2928
29.8284
29.3642
28.9001
28.4362
27.9725
27.5090
27.0458
26.5829
26.1203
25.6582
25.1965
24.7354
24.2749
23.8150
23.3559
22.8975
22.4401
21.9837
21.5284
21.0743
20.6216
20.1702
19.7205
19.2724
18.8262
18.3819
17.9398
17.5000
17.0626
16.6279
16.1959
15.7669
15.3410
14.9185
14.4995
14.0843
13.6729
13.2656
12.8627
12.4643
12.0705
11.6817
11.2980
10.9195
10.5466
10.1793
9.8179
9.4625
9.1134
8.7706
8.4343
8.1047
7.7820
7.4662
7.1575
6.8560
6.5618
6.2750
5.9956
5.7238
5.4595
5.2029
4.9540
4.7127
4.4791
4.2531
4.0348
3.8242