# vtk DataFile Version 5.0
Example 3D regular grid VTK file.
ASCII
DATASET UNSTRUCTURED_GRID
POINTS 90601 float
0 0 0
0 10 0
0 20 0
0 30 0
0 40 0
0 50 0
0 60 0
0 70 0
0 80 0
0 90 0
0 100 0
0 110 0
0 120 0
0 130 0
0 140 0
0 150 0
0 160 0
0 170 0
0 180 0
0 190 0
0 200 0
0 210 0
0 220 0
0 230 0
0 240 0
0 250 0
0 260 0
0 270 0
0 280 0
0 290 0
0 300 0
0 310 0
0 320 0
0 330 0
0 340 0
0 350 0
0 360 0
0 370 0
0 380 0
0 390 0
0 400 0
0 410 0
0 420 0
0 430 0
0 440 0
0 450 0
0 460 0
0 470 0
0 480 0
0 490 0
0 500 0
0 510 0
0 520 0
0 530 0
0 540 0
0 550 0
0 560 0
0 570 0
0 580 0
0 590 0
0 600 0
0 610 0
0 620 0
0 630 0
0 640 0
0 650 0
0 660 0
0 670 0
0 680 0
0 690 0
0 700 0
0 710 0
0 720 0
0 730 0
0 740 0
0 750 0
0 760 0
0 770 0
0 780 0
0 790 0
0 800 0
0 810 0
0 820 0
0 830 0
0 840 0
0 850 0
0 860 0
0 870 0
0 880 0
0 890 0
0 900 0
0 910 0
0 920 0
0 930 0
0 940 0
0 950 0
0 960 0
0 970 0
0 980 0
0 990 0
0 1000 0
0 1010 0
0 1020 0
0 1030 0
0 1040 0
0 1050 0
0 1060 0
0 1070 0
0 1080 0
0 1090 0
0 1100 0
0 1110 0
0 1120 0
0 1130 0
0 1140 0
0 1150 0
0 1160 0
0 1170 0
0 1180 0
0 1190 0
0 1200 0
0 1210 0
0 1220 0
0 1230 0
0 1240 0
0 1250 0
0 1260 0
0 1270 0
0 1280 0
0 1290 0
0 1300 0
0 1310 0
0 1320 0
0 1330 0
0 1340 0
0 1350 0
0 1360 0
0 1370 0
0 1380 0
0 1390 0
0 1400 0
0 1410 0
0 1420 0
0 1430 0
0 1440 0
0 1450 0
0 1460 0
0 1470 0
0 1480 0
0 1490 0
0 1500 0
0 1510 0
0 1520 0
0 1530 0
0 1540 0
0 1550 0
0 1560 0
0 1570 0
0 1580 0
0 1590 0
0 1600 0
0 1610 0
0 1620 0
0 1630 0
0 1640 0
0 1650 0
0 1660 0
0 1670 0
0 1680 0
0 1690 0
0 1700 0
0 1710 0
0 1720 0
0 1730 0
0 1740 0
0 1750 0
0 1760 0
0 1770 0
0 1780 0
0 1790 0
0 1800 0
0 1810 0
0 1820 0
0 1830 0
0 1840 0
0 1850 0
0 1860 0
0 1870 0
0 1880 0
0 1890 0
0 1900 0
0 1910 0
0 1920 0
0 1930 0
0 1940 0
0 1950 0
0 1960 0
0 1970 0
0 1980 0
0 1990 0
0 2000 0
0 2010 0
0 2020 0
0 2030 0
0 2040 0
0 2050 0
0 2060 0
0 2070 0
0 2080 0
0 2090 0
0 2100 0
0 2110 0
0 2120 0
0 2130 0
0 2140 0
0 2150 0
0 2160 0
0 2170 0
0 2180 0
0 2190 0
0 2200 0
0 2210 0
0 2220 0
0 2230 0
0 2240 0
0 2250 0
0 2260 0
0 2270 0
0 2280 0
0 2290 0
0 2300 0
0 2310 0
0 2320 0
0 2330 0
0 2340 0
0 2350 0
0 2360 0
0 2370 0
0 2380 0
0 2390 0
0 2400 0
0 2410 0
0 2420 0
0 2430 0
0 2440 0
0 2450 0
0 2460 0
0 2470 0
0 2480 0
0 2490 0
0 2500 0
0 2510 0
0 2520 0
0 2530 0
0 2540 0
0 2550 0
0 2560 0
0 2570 0
0 2580 0
0 2590 0
0 2600 0
0 2610 0
0 2620 0
0 2630 0
0 2640 0
0 2650 0
0 2660 0
0 2670 0
0 2680 0
0 2690 0
0 2700 0
0 2710 0
0 2720 0
0 2730 0
0 2740 0
0 2750 0
0 2760 0
0 2770 0
0 2780 0
0 2790 0
0 2800 0
0 2810 0
0 2820 0
0 2830 0
0 2840 0
0 2850 0
0 2860 0
0 2870 0
0 2880 0
0 2890 0
0 2900 0
0 2910 0
0 2920 0
0 2930 0
0 2940 0
0 2950 0
0 2960 0
0 2970 0
0 2980 0
0 2990 0
0 3000 0
10 0 0
10 10 0
10 20 0
10 30 0
10 40 0
10 50 0
10 60 0
10 70 0
10 80 0
10 90 0
10 100 0
10 110 0
10 120 0
10 130 0
10 140 0
10 150 0
10 160 0
10 170 0
10 180 0
10 190 0
10 200 0
10 210 0
10 220 0
10 230 0
10 240 0
10 250 0
10 260 0
10 270 0
10 280 0
10 290 0
10 300 0
10 310 0
10 320 0
10 330 0
10 340 0
10 350 0
10 360 0
10 370 0
10 380 0
10 390 0
10 400 0
10 410 0
10 420 0
10 430 0
10 440 0
10 450 0
10 460 0
10 470 0
10 480 0
10 490 0
10 500 0
10 510 0
10 520 0
10 530 0
10 540 0
10 550 0
10 560 0
10 570 0
10 580 0
10 590 0
10 600 0
10 610 0
10 620 0
10 630 0
10 640 0
10 650 0
10 660 0
10 670 0
10 680 0
10 690 0
10 700 0
10 710 0
10 720 0
10 730 0
10 740 0
10 750 0
10 760 0
10 770 0
10 780 0
10 790 0
10 800 0
10 810 0
10 820 0
10 830 0
10 840 0
10 850 0
10 860 0
10 870 0
10 880 0
10 890 0
10 900 0
10 910 0
10 920 0
10 930 0
10 940 0
10 950 0
10 960 0
10 970 0
10 980 0
10 990 0
10 1000 0
10 1010 0
10 1020 0
10 1030 0
10 1040 0
10 1050 0
10 1060 0
10 1070 0
10 1080 0
10 1090 0
10 1100 0
10 1110 0
10 1120 0
10 1130 0
10 1140 0
10 1150 0
10 1160 0
10 1170 0
10 1180 0
10 1190 0
10 1200 0
10 1210 0
10 1220 0
10 1230 0
10 1240 0
10 1250 0
10 1260 0
10 1270 0
10 1280 0
10 1290 0
10 1300 0
10 1310 0
10 1320 0
10 1330 0
10 1340 0
10 1350 0
10 1360 0
10 1370 0
10 1380 0
10 1390 0
10 1400 0
10 1410 0
10 1420 0
10 1430 0
10 1440 0
10 1450 0
10 1460 0
10 1470 0
10 1480 0
10 1490 0
10 1500 0
10 1510 0
10 1520 0
10 1530 0
10 1540 0
10 1550 0
10 1560 0
10 1570 0
10 1580 0
10 1590 0
10 1600 0
10 1610 0
10 1620 0
10 1630 0
10 1640 0
10 1650 0
10 1660 0
10 1670 0
10 1680 0
10 1690 0
10 1700 0
10 1710 0
10 1720 0
10 1730 0
10 1740 0
10 1750 0
10 1760 0
10 1770 0
10 1780 0
10 1790 0
10 1800 0
10 1810 0
10 1820 0
10 1830 0
10 1840 0
10 1850 0
10 1860 0
10 1870 0
10 1880 0
10 1890 0
10 1900 0
10 1910 0
10 1920 0
10 1930 0
10 1940 0
10 1950 0
10 1960 0
10 1970 0
10 1980 0
10 1990 0
10 2000 0
10 2010 0
10 2020 0
10 2030 0
10 2040 0
10 2050 0
10 2060 0
10 2070 0
10 2080 0
10 2090 0
10 2100 0
10 2110 0
10 2120 0
10 2130 0
10 2140 0
10 2150 0
10 2160 0
10 2170 0
10 2180 0
10 2190 0
10 2200 0
10 2210 0
10 2220 0
10 2230 0
10 2240 0
10 2250 0
10 2260 0
10 2270 0
10 2280 0
10 2290 0
10 2300 0
10 2310 0
10 2320 0
10 2330 0
10 2340 0
10 2350 0
10 2360 0
10 2370 0
10 2380 0
10 2390 0
10 2400 0
10 2410 0
10 2420 0
10 2430 0
10 2440 0
10 2450 0
10 2460 0
10 2470 0
10 2480 0
10 2490 0
10 2500 0
10 2510 0
10 2520 0
10 2530 0
10 2540 0
10 2550 0
10 2560 0
10 2570 0
10 2580 0
10 2590 0
10 2600 0
10 2610 0
10 2620 0
10 2630 0
10 2640 0
10 2650 0
10 2660 0
10 2670 0
10 2680 0
10 2690 0
10 2700 0
10 2710 0
10 2720 0
10 2730 0
10 2740 0
10 2750 0
10 2760 0
10 2770 0
10 2780 0
10 2790 0
10 2800 0
10 2810 0
10 2820 0
10 2830 0
10 2840 0
10 2850 0
10 2860 0
10 2870 0
10 2880 0
10 2890 0
10 2900 0
10 2910 0
10 2920 0
10 2930 0
10 2940 0
10 2950 0
10 2960 0
10 2970 0
10 2980 0
10 2990 0
10 3000 0
20 0 0
20 10 0
20 20 0
20 30 0
20 40 0
20 50 0
20 60 0
20 70 0
20 80 0
20 90 0
20 100 0
20 110 0
20 120 0
20 130 0
20 140 0
20 150 0
20 160 0
20 170 0
20 180 0
20 190 0
20 200 0
20 210 0
20 220 0
20 230 0
20 240 0
20 250 0
20 260 0
20 270 0
20 280 0
20 290 0
20 300 0
20 310 0
20 320 0
20 330 0
20 340 0
20 350 0
20 360 0
20 370 0
20 380 0
20 390 0
20 400 0
20 410 0
20 420 0
20 430 0
20 440 0
20 450 0
20 460 0
20 470 0
20 480 0
20 490 0
20 500 0
20 510 0
20 520 0
20 530 0
20 540 0
20 550 0
20 560 0
20 570 0
20 580 0
20 590 0
20 600 0
20 610 0
20 620 0
20 630 0
20 640 0
20 650 0
20 660 0
20 670 0
20 680 0
20 690 0
20 700 0
20 710 0
20 720 0
20 730 0
20 740 0
20 750 0
20 760 0
20 770 0
20 780 0
20 790 0
20 800 0
20 810 0
20 820 0
20 830 0
20 840 0
20 850 0
20 860 0
20 870 0
20 880 0
20 890 0
20 900 0
20 910 0
20 920 0
20 930 0
20 940 0
20 950 0
20 960 0
20 970 0
20 980 0
20 990 0
20 1000 0
20 1010 0
20 1020 0
20 1030 0
20 1040 0
20 1050 0
20 1060 0
20 1070 0
20 1080 0
20 1090 0
20 1100 0
20 1110 0
20 1120 0
20 1130 0
20 1140 0
20 1150 0
20 1160 0
20 1170 0
20 1180 0
20 1190 0
20 1200 0
20 1210 0
20 1220 0
20 1230 0
20 1240 0
20 1250 0
20 1260 0
20 1270 0
20 1280 0
20 1290 0
20 1300 0
20 1310 0
20 1320 0
20 1330 0
20 1340 0
20 1350 0
20 1360 0
20 1370 0
20 1380 0
20 1390 0
20 1400 0
20 1410 0
20 1420 0
20 1430 0
20 1440 0
20 1450 0
20 1460 0
20 1470 0
20 1480 0
20 1490 0
20 1500 0
20 1510 0
20 1520 0
20 1530 0
20 1540 0
20 1550 0
20 1560 0
20 1570 0
20 1580 0
20 1590 0
20 1600 0
20 1610 0
20 1620 0
20 1630 0
20 1640 0
20 1650 0
20 1660 0
20 1670 0
20 1680 0
20 1690 0
20 1700 0
20 1710 0
20 1720 0
20 1730 0
20 1740 0
20 1750 0
20 1760 0
20 1770 0
20 1780 0
20 1790 0
20 1800 0
20 1810 0
20 1820 0
20 1830 0
20 1840 0
20 1850 0
20 1860 0
20 1870 0
20 1880 0
20 1890 0
20 1900 0
20 1910 0
20 1920 0
20 1930 0
20 1940 0
20 1950 0
20 1960 0
20 1970 0
20 1980 0
20 1990 0
20 2000 0
20 2010 0
20 2020 0
20 2030 0
20 2040 0
20 2050 0
20 2060 0
20 2070 0
20 2080 0
20 2090 0
20 2100 0
20 2110 0
20 2120 0
20 2130 0
20 2140 0
20 2150 0
20 2160 0
20 2170 0
20 2180 0
20 2190 0
20 2200 0
20 2210 0
20 2220 0
20 2230 0
20 2240 0
20 2250 0
20 2260 0
20 2270 0
20 2280 0
20 2290 0
20 2300 0
20 2310 0
20 2320 0
20 2330 0
20 2340 0
20 2350 0
20 2360 0
20 2370 0
20 2380 0
20 2390 0
20 2400 0
20 2410 0
20 2420 0
20 2430 0
20 2440 0
20 2450 0
20 2460 0
20 2470 0
20 2480 0
20 2490 0
20 2500 0
20 2510 0
20 2520 0
20 2530 0
20 2540 0
20 2550 0
20 2560 0
20 2570 0
20 2580 0
20 2590 0
20 2600 0
20 2610 0
20 2620 0
20 2630 0
20 2640 0
20 2650 0
20 2660 0
20 2670 0
20 2680 0
20 2690 0
20 2700 0
20 2710 0
20 2720 0
20 2730 0
20 2740 0
20 2750 0
20 2760 0
20 2770 0
20 2780 0
20 2790 0
20 2800 0
20 2810 0
20 2820 0
20 2830 0
20 2840 0
20 2850 0
20 2860 0
20 2870 0
20 2880 0
20 2890 0
20 2900 0
20 2910 0
20 2920 0
20 2930 0
20 2940 0
20 2950 0
20 2960 0
20 2970 0
20 2980 0
20 2990 0
20 3000 0
30 0 0
30 10 0
30 20 0
30 30 0
30 40 0
30 50 0
30 60 0
30 70 0
30 80 0
30 90 0
30 100 0
30 110 0
30 120 0
30 130 0
30 140 0
30 150 0
30 160 0
30 170 0
30 180 0
30 190 0
30 200 0
30 210 0
30 220 0
30 230 0
30 240 0
30 250 0
30 260 0
30 270 0
30 280 0
30 290 0
30 300 0
30 310 0
30 320 0
30 330 0
30 340 0
30 350 0
30 360 0
30 370 0
30 380 0
30 390 0
30 400 0
30 410 0
30 420 0
30 430 0
30 440 0
30 450 0
30 460 0
30 470 0
30 480 0
30 490 0
30 500 0
30 510 0
30 520 0
30 530 0
30 540 0
30 550 0
30 560 0
30 570 0
30 580 0
30 590 0
30 600 0
30 610 0
30 620 0
30 630 0
30 640 0
30 650 0
30 660 0
30 670 0
30 680 0
30 690 0
30 700 0
30 710 0
30 720 0
30 730 0
30 740 0
30 750 0
30 760 0
30 770 0
30 780 0
30 790 0
30 800 0
30 810 0
30 820 0
30 830 0
30 840 0
30 850 0
30 860 0
30 870 0
30 880 0
30 890 0
30 900 0
30 910 0
30 920 0
30 930 0
30 940 0
30 950 0
30 960 0
30 970 0
30 980 0
30 990 0
30 1000 0
30 1010 0
30 1020 0
30 1030 0
30 1040 0
30 1050 0
30 1060 0
30 1070 0
30 1080 0
30 1090 0
30 1100 0
30 1110 0
30 1120 0
30 1130 0
30 1140 0
30 1150 0
30 1160 0
30 1170 0
30 1180 0
30 1190 0
30 1200 0
30 1210 0
30 1220 0
30 1230 0
30 1240 0
30 1250 0
30 1260 0
30 1270 0
30 1280 0
30 1290 0
30 1300 0
30 1310 0
30 1320 0
30 1330 0
30 1340 0
30 1350 0
30 1360 0
30 1370 0
30 1380 0
30 1390 0
30 1400 0
30 1410 0
30 1420 0
30 1430 0
30 1440 0
30 1450 0
30 1460 0
30 1470 0
30 1480 0
30 1490 0
30 1500 0
30 1510 0
30 1520 0
30 1530 0
30 1540 0
30 1550 0
30 1560 0
30 1570 0
30 1580 0
30 1590 0
[...]
POINT_DATA 90601
SCALARS P float
LOOKUP_TABLE default
85.8781
85.8781
85.9151
86.0032
86.1511
86.3578
86.6110
86.8896
87.1694
87.4273
87.6451
87.8103
87.9161
87.9604
87.9444
87.8717
87.7470
87.5756
87.3630
87.1144
86.8345
86.5278
86.1979
85.8483
85.4819
85.1012
84.7082
84.3049
83.8927
83.4730
83.0470
82.6154
82.1793
81.7391
81.2956
80.8492
80.4003
79.9494
79.4966
79.0422
78.5865
78.1297
77.6719
77.2132
76.7538
76.2938
75.8332
75.3722
74.9108
74.4490
73.9869
73.5245
73.0619
72.5992
72.1362
71.6731
71.2099
70.7466
70.2832
69.8196
69.3561
68.8924
68.4287
67.9649
67.5011
67.0373
66.5734
66.1095
65.6456
65.1817
64.7177
64.2537
63.7898
63.3258
62.8617
62.3977
61.9337
61.4696
61.0056
60.5415
60.0775
59.6134
59.1494
58.6853
58.2212
57.7571
57.2931
56.8290
56.3649
55.9008
55.4367
54.9726
54.5085
54.0444
53.5803
53.1162
52.6521
52.1880
51.7239
51.2598
50.7957
50.3315
49.8674
49.4033
48.9392
48.4750
48.0109
47.5467
47.0825
46.6184
46.1542
45.6900
45.2258
44.7616
44.2973
43.8331
43.3688
42.9046
42.4403
41.9760
41.5117
41.0473
40.5829
40.1186
39.6542
39.1897
38.7253
38.2608
37.7963
37.3318
36.8673
36.4028
35.9383
35.4737
35.0092
34.5446
34.0801
33.6156
33.1511
32.6866
32.2222
31.7579
31.2936
30.8294
30.3654
29.9015
29.4377
28.9742
28.5108
28.0478
27.5850
27.1226
26.6606
26.1990
25.7378
25.2773
24.8173
24.3581
23.8996
23.4419
22.9851
22.5293
22.0747
21.6212
21.1691
20.7184
20.2692
19.8217
19.3759
18.9321
18.4904
18.0509
17.6137
17.1791
16.7471
16.3180
15.8920
15.4691
15.0496
14.6336
14.2214
13.8130
13.4088
13.0089
12.6134
12.2226
11.8367
11.4558
11.0801
10.7097
10.3450
9.9860
9.6328
9.2858
8.9450
8.6105
8.2825
7.9612
7.6466
7.3389
7.0382
6.7446
6.4581
6.1789
5.9070
5.6424
5.3852
5.1354
4.8931
4.6582
4.4307
4.2107
3.9980
3.7927
3.5947
3.4039
3.2203
3.0438
2.8743
2.7116
2.5557
2.4064
2.2637
2.1274
1.9973
1.8733
1.7552
1.6430
1.5363
1.4352
1.3393
1.2485
1.1627
1.0816
1.0051
0.9331
0.8653
0.8016
0.7417
0.6856
0.6331
0.5839
0.5380
0.4951
0.4551
0.4179
0.3834
0.3512
0.3215
0.2939
0.2683
0.2447
0.2230
0.2029
0.1844
0.1674
0.1519
0.1375
0.1244
0.1125
0.1015
0.0915
0.0824
0.0741
0.0666
0.0598
0.0536
0.0479
0.0429
0.0383
0.0341
0.0304
0.0271
0.0240
0.0213
0.0189
0.0168
0.0148
0.0131
0.0115
0.0102
0.0090
0.0079
0.0069
0.0061
0.0053
0.0046
0.0041
0.0035
0.0031
0.0027
0.0023
0.0020
0.0018
0.0015
0.0013
0.0011
0.0010
0.0009
0.0008
0.0007
85.8781
85.8781
85.9151
86.0032
86.1511
86.3578
86.6110
86.8896
87.1694
87.4273
87.6451
87.8103
87.9161
87.9604
87.9444
87.8717
87.7470
87.5756
87.3630
87.1144
86.8345
86.5278
86.1979
85.8483
85.4819
85.1012
84.7082
84.3049
83.8927
83.4730
83.0470
82.6154
82.1793
81.7391
81.2956
80.8492
80.4003
79.9494
79.4966
79.0422
78.5865
78.1297
77.6719
77.2132
76.7538
76.2938
75.8332
75.3722
74.9108
74.4490
73.9869
73.5245
73.0619
72.5992
72.1362
71.6731
71.2099
70.7466
70.2832
69.8196
69.3561
68.8924
68.4287
67.9649
67.5011
67.0373
66.5734
66.1095
65.6456
65.1817
64.7177
64.2537
63.7898
63.3258
62.8617
62.3977
61.9337
61.4696
61.0056
60.5415
60.0775
59.6134
59.1494
58.6853
58.2212
57.7571
57.2931
56.8290
56.3649
55.9008
55.4367
54.9726
54.5085
54.0444
53.5803
53.1162
52.6521
52.1880
51.7239
51.2598
50.7957
50.3315
49.8674
49.4033
48.9392
48.4750
48.0109
47.5467
47.0825
46.6184
46.1542
45.6900
45.2258
44.7616
44.2973
43.8331
43.3688
42.9046
42.4403
41.9760
41.5117
41.0473
40.5829
40.1186
39.6542
39.1897
38.7253
38.2608
37.7963
37.3318
36.8673
36.4028
35.9383
35.4737
35.0092
34.5446
34.0801
33.6156
33.1511
32.6866
32.2222
31.7579
31.2936
30.8294
30.3654
29.9015
29.4377
28.9742
28.5108
28.0478
27.5850
27.1226
26.6606
26.1990
25.7378
25.2773
24.8173
24.3581
23.8996
23.4419
22.9851
22.5293
22.0747
21.6212
21.1691
20.7184
20.2692
19.8217
19.3759
18.9321
18.4904
18.0509
17.6137
17.1791
16.7471
16.3180
15.8920
15.4691
15.0496
14.6336
14.2214
13.8130
13.4088
13.0089
12.6134
12.2226
11.8367
11.4558
11.0801
10.7097
10.3450
9.9860
9.6328
9.2858
8.9450
8.6105
8.2825
7.9612
7.6466
7.3389
7.0382
6.7446
6.4581
6.1789
5.9070
5.6424
5.3852
5.1354
4.8931
4.6582
4.4307
4.2107
3.9980
3.7927
3.5947
3.4039
3.2203
3.0438
2.8743
2.7116
2.5557
2.4064
2.2637
2.1274
1.9973
1.8733
1.7552
1.6430
1.5363
1.4352
1.3393
1.2485
1.1627
1.0816
1.0051
0.9331
0.8653
0.8016
0.7417
0.6856
0.6331
0.5839
0.5380
0.4951
0.4551
0.4179
0.3834
0.3512
0.3215
0.2939
0.2683
0.2447
0.2230
0.2029
0.1844
0.1674
0.1519
0.1375
0.1244
0.1125
0.1015
0.0915
0.0824
0.0741
0.0666
0.0598
0.0536
0.0479
0.0429
0.0383
0.0341
0.0304
0.0271
0.0240
0.0213
0.0189
0.0168
0.0148
0.0131
0.0115
0.0102
0.0090
0.0079
0.0069
0.0061
0.0053
0.0046
0.0041
0.0035
0.0031
0.0027
0.0023
0.0020
0.0018
0.0015
0.0013
0.0011
0.0010
0.0009
0.0008
0.0007
86.1694
86.1694
86.2182
86.3337
86.5251
86.7857
87.0926
87.4137
87.7172
87.9780
88.1798
88.3146
88.3806
88.3802
88.3181
88.2004
88.0336
87.8239
87.5769
87.2980
86.9917
86.6621
86.3126
85.9461
85.5653
85.1723
84.7689
84.3567
83.9370
83.5108
83.0793
82.6431
82.2030
81.7595
81.3131
80.8642
80.4132
79.9604
79.5061
79.0504
78.5936
78.1358
77.6771
77.2178
76.7578
76.2972
75.8362
75.3748
74.9130
74.4509
73.9886
73.5260
73.0632
72.6003
72.1372
71.6740
71.2106
70.7472
70.2837
69.8201
69.3565
68.8928
68.4290
67.9652
67.5014
67.0375
66.5736
66.1097
65.6458
65.1818
64.7178
64.2538
63.7898
63.3258
62.8618
62.3978
61.9337
61.4697
61.0056
60.5416
60.0775
59.6134
59.1494
58.6853
58.2212
57.7571
57.2931
56.8290
56.3649
55.9008
55.4367
54.9726
54.5085
54.0444
53.5803
53.1162
52.6521
52.1880
51.7239
51.2598
50.7957
50.3315
49.8674
49.4033
48.9392
48.4750
48.0109
47.5467
47.0825
46.6184
46.1542
45.6900
45.2258
44.7616
44.2973
43.8331
43.3688
42.9046
42.4403
41.9760
41.5117
41.0473
40.5829
40.1186
39.6542
39.1897
38.7253
38.2608
37.7963
37.3318
36.8673
36.4028
35.9383
35.4737
35.0092
34.5446
34.0801
33.6156
33.1511
32.6866
32.2222
31.7579
31.2936
30.8294
30.3654
29.9015
29.4377
28.9742
28.5108
28.0478
27.5850
27.1226
26.6606
26.1990
25.7378
25.2773
24.8173
24.3581
23.8996
23.4419
22.9851
22.5293
22.0747
21.6212
21.1691
20.7184
20.2692
19.8217
19.3759
18.9321
18.4904
18.0509
17.6137
17.1791
16.7471
16.3180
15.8920
15.4691
15.0496
14.6336
14.2214
13.8130
13.4088
13.0089
12.6134
12.2226
11.8367
11.4558
11.0801
10.7097
10.3450
9.9860
9.6328
9.2858
8.9450
8.6105
8.2825
7.9612
7.6466
7.3389
7.0382
6.7446
6.4581
6.1789
5.9070
5.6424
5.3852
5.1354
4.8931
4.6582
4.4307
4.2107
3.9980
3.7927
3.5947
3.4039
3.2203
3.0438
2.8743
2.7116
2.5557
2.4064
2.2637
2.1274
1.9973
1.8733
1.7552
1.6430
1.5363
1.4352
1.3393
1.2485
1.1627
1.0816
1.0051
0.9331
0.8653
0.8016
0.7417
0.6856
0.6331
0.5839
0.5380
0.4951
0.4551
0.4179
0.3834
0.3512
0.3215
0.2939
0.2683
0.2447
0.2230
0.2029
0.1844
0.1674
0.1519
0.1375
0.1244
0.1125
0.1015
0.0915
0.0824
0.0741
0.0666
0.0598
0.0536
0.0479
0.0429
0.0383
0.0341
0.0304
0.0271
0.0240
0.0213
0.0189
0.0168
0.0148
0.0131
0.0115
0.0102
0.0090
0.0079
0.0069
0.0061
0.0053
0.0046
0.0041
0.0035
0.0031
0.0027
0.0023
0.0020
0.0018
0.0015
0.0013
0.0011
0.0010
0.0009
0.0008
0.0007
86.9460
86.9460
87.0314
87.2322
87.5579
87.9824
88.4458
88.8811
89.2378
89.4896
89.6306
89.6680
89.6149
89.4861
89.2957
89.0558
88.7761
88.4646
88.1275
87.7697
87.3950
87.0063
86.6062
86.1965
85.7788
85.3544
84.9242
84.4893
84.0502
83.6077
83.1621
82.7140
82.2638
81.8116
81.3578
80.9026
80.4463
79.9889
79.5306
79.0716
78.6118
78.1515
77.6907
77.2295
76.7679
76.3060
75.8438
75.3814
74.9187
74.4559
73.9929
73.5297
73.0665
72.6031
72.1397
71.6761
71.2125
70.7489
70.2851
69.8214
69.3576
68.8937
68.4298
67.9659
67.5020
67.0381
66.5741
66.1101
65.6461
65.1821
64.7181
64.2541
63.7901
63.3260
62.8620
62.3979
61.9339
61.4698
61.0057
60.5417
60.0776
59.6135
59.1494
58.6854
58.2213
57.7572
57.2931
56.8290
56.3649
55.9008
55.4367
54.9726
54.5085
54.0444
53.5803
53.1162
52.6521
52.1880
51.7239
51.2598
50.7957
50.3316
49.8674
49.4033
48.9392
48.4750
48.0109
47.5467
47.0825
46.6184
46.1542
45.6900
45.2258
44.7616
44.2973
43.8331
43.3688
42.9046
42.4403
41.9760
41.5117
41.0473
40.5829
40.1186
39.6542
39.1897
38.7253
38.2608
37.7963
37.3318
36.8673
36.4028
35.9383
35.4737
35.0092
34.5446
34.0801
33.6156
33.1511
32.6866
32.2222
31.7579
31.2936
30.8294
30.3654
29.9015
29.4377
28.9742
28.5108
28.0478
27.5850
27.1226
26.6606
26.1990
25.7378
25.2773
24.8173
24.3581
23.8996
23.4419
22.9851
22.5293
22.0747
21.6212
21.1691
20.7184
20.2692
19.8217
19.3759
18.9321
18.4904
18.0509
17.6137
17.1791
16.7471
16.3180
15.8920
15.4691
15.0496
14.6336
14.2214
13.8130
13.4088
13.0089
12.6134
12.2226
11.8367
11.4558
11.0801
10.7097
10.3450
9.9860
9.6328
9.2858
8.9450
8.6105
8.2825
7.9612
7.6466
7.3389
7.0382
6.7446
6.4581
6.1789
5.9070
5.6424
5.3852
5.1354
4.8931
4.6582
4.4307
4.2107
3.9980
3.7927
3.5947
3.4039
3.2203
3.0438
2.8743
2.7116
2.5557
2.4064
2.2637
2.1274
1.9973
1.8733
1.7552
1.6430
1.5363
1.4352
1.3393
1.2485
1.1627
1.0816
1.0051
0.9331
0.8653
0.8016
0.7417
0.6856
0.6331
0.5839
0.5380
0.4951
0.4551
0.4179
0.3834
0.3512
0.3215
0.2939
0.2683
0.2447
0.2230
0.2029
0.1844
0.1674
0.1519
0.1375
0.1244
0.1125
0.1015
0.0915
0.0824
0.0741
0.0666
0.0598
0.0536
0.0479
0.0429
0.0383
0.0341
0.0304
0.0271
0.0240
0.0213
0.0189
0.0168
0.0148
0.0131
0.0115
0.0102
0.0090
0.0079
0.0069
0.0061
0.0053
0.0046
0.0041
0.0035
0.0031
0.0027
0.0023
0.0020
0.0018
0.0015
0.0013
0.0011
0.0010
0.0009
0.0008
0.0007
88.5144
88.5144
88.6928
89.1113
89.7805
90.6149
91.4398
92.1005
92.5188
92.6871
92.6390
92.4233
92.0881
91.6729
91.2079
90.7141
90.2058
89.6920
89.1780
88.6670
88.1604
87.6589
87.1623
86.6704
86.1828
85.6989
85.2182
84.7403
84.2648
83.7912
83.3192
82.8486
82.3792
81.9106
81.4429
80.9758
80.5092
80.0431
79.5773
79.1119
78.6466
78.1816
77.7167
77.2520
76.7874
76.3229
75.8584
75.3941
74.9297
74.4654
74.0012
73.5370
73.0728
72.6086
72.1444
71.6803
71.2161
70.7520
70.2879
69.8238
69.3597
68.8956
68.4314
67.9673
67.5032
67.0391
66.5751
66.1110
65.6469
65.1828
64.7187
64.2546
63.7905
63.3264
62.8623
62.3982
61.9341
61.4700
61.0059
60.5418
60.0777
59.6136
59.1496
58.6855
58.2214
57.7573
57.2932
56.8291
56.3650
55.9009
55.4368
54.9727
54.5086
54.0445
53.5804
53.1163
52.6522
52.1880
51.7239
51.2598
50.7957
50.3316
49.8674
49.4033
48.9392
48.4750
48.0109
47.5467
47.0825
46.6184
46.1542
45.6900
45.2258
44.7616
44.2973
43.8331
43.3688
42.9046
42.4403
41.9760
41.5117
41.0473
40.5829
40.1186
39.6542
39.1897
38.7253
38.2608
37.7963
37.3318
36.8673
36.4028
35.9383
35.4737
35.0092
34.5446
34.0801
33.6156
33.1511
32.6866
32.2222
31.7579
31.2936
30.8294
30.3654
29.9015
29.4377
28.9742
28.5108
28.0478
27.5850
27.1226
26.6606
26.1990
25.7378
25.2773
24.8173
24.3581
23.8996
23.4419
22.9851
22.5293
22.0747
21.6212
21.1691
20.7184
20.2692
19.8217
19.3759
18.9321
18.4904
18.0509
17.6137
17.1791
16.7471
16.3180
15.8920
15.4691
15.0496
14.6336
14.2214
13.8130
13.4088
13.0089
12.6134
12.2226
11.8367
11.4558
11.0801
10.7097
10.3450
9.9860
9.6328
9.2858
8.9450
8.6105
8.2825
7.9612
7.6466
7.3389
7.0382
6.7446
6.4581
6.1789
5.9070
5.6424
5.3852
5.1354
4.8931
4.6582
4.4307
4.2107
3.9980
3.7927
3.5947
3.4039
3.2203
3.0438
2.8743
2.7116
2.5557
2.4064
2.2637
2.1274
1.9973
1.8733
1.7552
1.6430
1.5363
1.4352
1.3393
1.2485
1.1627
1.0816
1.0051
0.9331
0.8653
0.8016
0.7417
0.6856
0.6331
0.5839
0.5380
0.4951
0.4551
0.4179
0.3834
0.3512
0.3215
0.2939
0.2683
0.2447
0.2230
0.2029
0.1844
0.1674
0.1519
0.1375
0.1244
0.1125
0.1015
0.0915
0.0824
0.0741
0.0666
0.0598
0.0536
0.0479
0.0429
0.0383
0.0341
0.0304
0.0271
0.0240
0.0213
0.0189
0.0168
0.0148
0.0131
0.0115
0.0102
0.0090
0.0079
0.0069
0.0061
0.0053
0.0046
0.0041
0.0035
0.0031
0.0027
0.0023
0.0020
0.0018
0.0015
0.0013
0.0011
0.0010
0.0009
0.0008
0.0007
91.3418
91.3418
91.7432
92.6926
94.2107
96.0365
97.6266
98.6343
98.9940
98.8090
98.2362
97.4224
96.4811
95.4905
94.5001
93.5387
92.6208
91.7521
90.9331
90.1612
89.4321
88.7413
88.0839
87.4556
86.8521
86.2698
85.7057
85.1568
84.6210
84.0961
83.5804
83.0726
82.5714
82.0758
81.5849
81.0980
80.6145
80.1338
79.6556
79.1794
78.7050
78.2321
77.7604
77.2898
76.8202
76.3513
75.8831
75.4154
74.9483
74.4816
74.0152
73.5492
73.0834
72.6178
72.1525
71.6873
71.2223
70.7574
70.2926
69.8279
69.3632
68.8987
68.4342
67.9697
67.5053
67.0410
66.5766
66.1124
65.6481
65.1838
64.7196
64.2554
63.7912
63.3270
62.8629
62.3987
61.9345
61.4704
61.0063
60.5421
60.0780
59.6139
59.1498
58.6856
58.2215
57.7574
57.2933
56.8292
56.3651
55.9010
55.4369
54.9727
54.5086
54.0445
53.5804
53.1163
52.6522
52.1881
51.7240
51.2598
50.7957
50.3316
49.8675
49.4033
48.9392
48.4750
48.0109
47.5467
47.0826
46.6184
46.1542
45.6900
45.2258
44.7616
44.2973
43.8331
43.3688
42.9046
42.4403
41.9760
41.5117
41.0473
40.5829
40.1186
39.6542
39.1897
38.7253
38.2608
37.7963
37.3318
36.8673
36.4028
35.9383
35.4737
35.0092
34.5446
34.0801
33.6156
33.1511
32.6866
32.2222
31.7579
31.2936
30.8294
30.3654
29.9015
29.4377
28.9742
28.5108
28.0478
27.5850
27.1226
26.6606
26.1990
25.7378
25.2773
24.8173
24.3581
23.8996
23.4419
22.9851
22.5293
22.0747
21.6212
21.1691
20.7184
20.2692
19.8217
19.3759
18.9321
18.4904
18.0509
17.6137
17.1791
16.7471
16.3180
15.8920
15.4691
15.0496
14.6336
14.2214
13.8130
13.4088
13.0089
12.6134
12.2226
11.8367
11.4558
11.0801
10.7097
10.3450
9.9860
9.6328
9.2858
8.9450
8.6105
8.2825
7.9612
7.6466
7.3389
7.0382
6.7446
6.4581
6.1789
5.9070
5.6424
5.3852
5.1354
4.8931
4.6582
4.4307
4.2107
3.9980
3.7927
3.5947
3.4039
3.2203
3.0438
2.8743
2.7116
2.5557
2.4064
2.2637
2.1274
1.9973
1.8733
1.7552
1.6430
1.5363
1.4352
1.3393
1.2485
1.1627
1.0816
1.0051
0.9331
0.8653
0.8016
0.7417
0.6856
0.6331
0.5839
0.5380
0.4951
0.4551
0.4179
0.3834
0.3512
0.3215
0.2939
0.2683
0.2447
0.2230
0.2029
0.1844
0.1674
0.1519
0.1375
0.1244
0.1125
0.1015
0.0915
0.0824
0.0741
0.0666
0.0598
0.0536
0.0479
0.0429
0.0383
0.0341
0.0304
0.0271
0.0240
0.0213
0.0189
0.0168
0.0148
0.0131
0.0115
0.0102
0.0090
0.0079
0.0069
0.0061
0.0053
0.0046
0.0041
0.0035
0.0031
0.0027
0.0023
0.0020
0.0018
0.0015
0.0013
0.0011
0.0010
0.0009
0.0008
0.0007
96.0951
96.0951
97.0145
99.2369
102.8675
107.1467
110.2231
111.4766
111.1752
109.8448
107.9552
105.8365
103.6922
101.6349
99.7193
97.9652
96.3732
94.9333
93.6313
92.4513
91.3775
90.3953
89.4916
88.6548
87.8748
87.1429
86.4517
85.7950
85.1673
84.5643
83.9821
83.4175
82.8678
82.3308
81.8044
81.2871
80.7776
80.2746
79.7772
79.2845
78.7959
78.3107
77.8285
77.3489
76.8714
76.3957
75.9217
75.4490
74.9774
74.5069
74.0373
73.5684
73.1001
72.6324
72.1652
71.6984
71.2319
70.7658
70.2999
69.8343
69.3689
68.9036
68.4385
67.9735
67.5086
67.0439
66.5792
66.1146
65.6500
65.1855
64.7211
64.2567
63.7924
63.3280
62.8637
62.3995
61.9352
61.4710
61.0068
60.5426
60.0784
59.6142
59.1501
58.6859
58.2218
57.7576
57.2935
56.8293
56.3652
55.9011
55.4370
54.9728
54.5087
54.0446
53.5805
53.1164
52.6522
52.1881
51.7240
51.2599
50.7957
50.3316
49.8675
49.4033
48.9392
48.4750
48.0109
47.5467
47.0826
46.6184
46.1542
45.6900
45.2258
44.7616
44.2974
43.8331
43.3689
42.9046
42.4403
41.9760
41.5117
41.0473
40.5830
40.1186
39.6542
39.1897
38.7253
38.2608
37.7964
37.3319
36.8673
36.4028
35.9383
35.4737
35.0092
34.5446
34.0801
33.6156
33.1511
32.6866
32.2222
31.7579
31.2936
30.8294
30.3654
29.9015
29.4377
28.9742
28.5108
28.0478
27.5850
27.1226
26.6606
26.1990
25.7378
25.2773
24.8173
24.3581
23.8996
23.4419
22.9851
22.5293
22.0747
21.6212
21.1691
20.7184
20.2692
19.8217
19.3759
18.9321
18.4904
18.0509
17.6137
17.1791
16.7471
16.3180
15.8920
15.4691
15.0496
14.6336
14.2214
13.8130
13.4088
13.0089
12.6134
12.2226
11.8367
11.4558
11.0801
10.7097
10.3450
9.9860
9.6328
9.2858
8.9450
8.6105
8.2825
7.9612
7.6466
7.3389
7.0382
6.7446
6.4581
6.1789
5.9070
5.6424
5.3852
5.1354
4.8931
4.6582
4.4307
4.2107
3.9980
3.7927
3.5947
3.4039
3.2203
3.0438
2.8743
2.7116
2.5557
2.4064
2.2637
2.1274
1.9973
1.8733
1.7552
1.6430
1.5363
1.4352
1.3393
1.2485
1.1627
1.0816
1.0051
0.9331
0.8653
0.8016
0.7417
0.6856
0.6331
0.5839
0.5380
0.4951
0.4551
0.4179
0.3834
0.3512
0.3215
0.2939
0.2683
0.2447
0.2230
0.2029
0.1844
0.1674
0.1519
0.1375
0.1244
0.1125
0.1015
0.0915
0.0824
0.0741
0.0666
0.0598
0.0536
0.0479
0.0429
0.0383
0.0341
0.0304
0.0271
0.0240
0.0213
0.0189
0.0168
0.0148
0.0131
0.0115
0.0102
0.0090
0.0079
0.0069
0.0061
0.0053
0.0046
0.0041
0.0035
0.0031
0.0027
0.0023
0.0020
0.0018
0.0015
0.0013
0.0011
0.0010
0.0009
0.0008
0.0007
103.6183
103.6183
105.6883
110.9002
119.8924
130.6697
136.0531
136.1693
133.1136
128.6311
123.7679
119.0560
114.7271
110.8559
107.4411
104.4478
101.8291
99.5362
97.5230
95.7482
94.1757
92.7742
91.5170
90.3817
89.3491
88.4031
87.5302
86.7189
85.9598
85.2446
84.5667
83.9203
83.3007
82.7037
82.1260
81.5647
81.0173
80.4818
79.9564
79.4396
78.9302
78.4272
77.9295
77.4365
76.9474
76.4618
75.9791
75.4989
75.0209
74.5448
74.0702
73.5971
73.1252
72.6543
72.1843
71.7150
71.2465
70.7785
70.3110
69.8440
69.3773
68.9110
68.4450
67.9792
67.5136
67.0482
66.5830
66.1179
65.6530
65.1881
64.7234
64.2587
63.7941
63.3296
62.8651
62.4007
61.9363
61.4719
61.0076
60.5433
60.0790
59.6148
59.1506
58.6863
58.2221
57.7579
57.2938
56.8296
56.3654
55.9013
55.4371
54.9730
54.5089
54.0447
53.5806
53.1165
52.6523
52.1882
51.7241
51.2599
50.7958
50.3317
49.8675
49.4034
48.9392
48.4751
48.0109
47.5468
47.0826
46.6184
46.1542
45.6900
45.2258
44.7616
44.2974
43.8331
43.3689
42.9046
42.4403
41.9760
41.5117
41.0473
40.5830
40.1186
39.6542
39.1897
38.7253
38.2608
37.7964
37.3319
36.8673
36.4028
35.9383
35.4737
35.0092
34.5446
34.0801
33.6156
33.1511
32.6866
32.2222
31.7579
31.2936
30.8294
30.3654
29.9015
29.4377
28.9742
28.5108
28.0478
27.5850
27.1226
26.6606
26.1990
25.7378
25.2773
24.8173
24.3581
23.8996
23.4419
22.9851
22.5293
22.0747
21.6212
21.1691
20.7184
20.2692
19.8217
19.3759
18.9321
18.4904
18.0509
17.6137
17.1791
16.7471
16.3180
15.8920
15.4691
15.0496
14.6336
14.2214
13.8130
13.4088
13.0089
12.6134
12.2226
11.8367
11.4558
11.0801
10.7097
10.3450
9.9860
9.6328
9.2858
8.9450
8.6105
8.2825
7.9612
7.6466
7.3389
7.0382
6.7446
6.4581
6.1789
5.9070
5.6424
5.3852
5.1354
4.8931
4.6582
4.4307
4.2107
3.9980
3.7927
3.5947
3.4039
3.2203
3.0438
2.8743
2.7116
2.5557
2.4064
2.2637
2.1274
1.9973
1.8733
1.7552
1.6430
1.5363
1.4352
1.3393
1.2485
1.1627
1.0816
1.0051
0.9331
0.8653
0.8016
0.7417
0.6856
0.6331
0.5839
0.5380
0.4951
0.4551
0.4179
0.3834
0.3512
0.3215
0.2939
0.2683
0.2447
0.2230
0.2029
0.1844
0.1674
0.1519
0.1375
0.1244
0.1125
0.1015
0.0915
0.0824
0.0741
0.0666
0.0598
0.0536
0.0479
0.0429
0.0383
0.0341
0.0304
0.0271
0.0240
0.0213
0.0189
0.0168
0.0148
0.0131
0.0115
0.0102
0.0090
0.0079
0.0069
0.0061
0.0053
0.0046
0.0041
0.0035
0.0031
0.0027
0.0023
0.0020
0.0018
0.0015
0.0013
0.0011
0.0010
0.0009
0.0008
0.0007
114.7196
114.7196
119.1453
131.0441
153.8570
184.1690
189.5494
181.9046
170.1590
158.2403
147.4999
138.2364
130.3744
123.7316
118.1149
113.3512
109.2937
105.8208
102.8327
100.2475
97.9977
96.0278
94.2920
92.7523
91.3773
90.1407
89.0206
87.9987
87.0599
86.1912
85.3820
84.6231
83.9070
83.2272
82.5783
81.9558
81.3557
80.7748
80.2103
79.6597
79.1212
78.5929
78.0735
77.5616
77.0562
76.5565
76.0615
75.5707
75.0834
74.5993
74.1178
73.6386
73.1613
72.6859
72.2119
71.7392
71.2676
70.7969
70.3272
69.8581
69.3897
68.9218
68.4545
67.9875
67.5209
67.0546
66.5886
66.1228
65.6573
65.1919
64.7267
64.2616
63.7967
63.3318
62.8671
62.4024
61.9378
61.4733
61.0088
60.5443
60.0799
59.6156
59.1513
58.6870
58.2227
57.7584
57.2942
56.8300
56.3658
55.9016
55.4374
54.9732
54.5091
54.0449
53.5807
53.1166
52.6524
52.1883
51.7242
51.2600
50.7959
50.3317
49.8676
49.4034
48.9393
48.4751
48.0110
47.5468
47.0826
46.6184
46.1542
45.6900
45.2258
44.7616
44.2974
43.8331
43.3689
42.9046
42.4403
41.9760
41.5117
41.0473
40.5830
40.1186
39.6542
39.1897
38.7253
38.2608
37.7964
37.3319
36.8673
36.4028
35.9383
35.4737
35.0092
34.5446
34.0801
33.6156
33.1511
32.6866
32.2222
31.7579
31.2936
30.8294
30.3654
29.9015
29.4377
28.9742
28.5108
28.0478
27.5850
27.1226
26.6606
26.1990
25.7378
25.2773
24.8173
24.3581
23.8996
23.4419
22.9851
22.5293
22.0747
21.6212
21.1691
20.7184
20.2692
19.8217
19.3759
18.9321
18.4904
18.0509
17.6137
17.1791
16.7471
16.3180
15.8920
15.4691
15.0496
14.6336
14.2214
13.8130
13.4088
13.0089
12.6134
12.2226
11.8367
11.4558
11.0801