# vtk DataFile Version 5.0
Example 3D regular grid VTK file.
ASCII
DATASET UNSTRUCTURED_GRID
POINTS 90601 float
0 0 0
0 10 0
0 20 0
0 30 0
0 40 0
0 50 0
0 60 0
0 70 0
0 80 0
0 90 0
0 100 0
0 110 0
0 120 0
0 130 0
0 140 0
0 150 0
0 160 0
0 170 0
0 180 0
0 190 0
0 200 0
0 210 0
0 220 0
0 230 0
0 240 0
0 250 0
0 260 0
0 270 0
0 280 0
0 290 0
0 300 0
0 310 0
0 320 0
0 330 0
0 340 0
0 350 0
0 360 0
0 370 0
0 380 0
0 390 0
0 400 0
0 410 0
0 420 0
0 430 0
0 440 0
0 450 0
0 460 0
0 470 0
0 480 0
0 490 0
0 500 0
0 510 0
0 520 0
0 530 0
0 540 0
0 550 0
0 560 0
0 570 0
0 580 0
0 590 0
0 600 0
0 610 0
0 620 0
0 630 0
0 640 0
0 650 0
0 660 0
0 670 0
0 680 0
0 690 0
0 700 0
0 710 0
0 720 0
0 730 0
0 740 0
0 750 0
0 760 0
0 770 0
0 780 0
0 790 0
0 800 0
0 810 0
0 820 0
0 830 0
0 840 0
0 850 0
0 860 0
0 870 0
0 880 0
0 890 0
0 900 0
0 910 0
0 920 0
0 930 0
0 940 0
0 950 0
0 960 0
0 970 0
0 980 0
0 990 0
0 1000 0
0 1010 0
0 1020 0
0 1030 0
0 1040 0
0 1050 0
0 1060 0
0 1070 0
0 1080 0
0 1090 0
0 1100 0
0 1110 0
0 1120 0
0 1130 0
0 1140 0
0 1150 0
0 1160 0
0 1170 0
0 1180 0
0 1190 0
0 1200 0
0 1210 0
0 1220 0
0 1230 0
0 1240 0
0 1250 0
0 1260 0
0 1270 0
0 1280 0
0 1290 0
0 1300 0
0 1310 0
0 1320 0
0 1330 0
0 1340 0
0 1350 0
0 1360 0
0 1370 0
0 1380 0
0 1390 0
0 1400 0
0 1410 0
0 1420 0
0 1430 0
0 1440 0
0 1450 0
0 1460 0
0 1470 0
0 1480 0
0 1490 0
0 1500 0
0 1510 0
0 1520 0
0 1530 0
0 1540 0
0 1550 0
0 1560 0
0 1570 0
0 1580 0
0 1590 0
0 1600 0
0 1610 0
0 1620 0
0 1630 0
0 1640 0
0 1650 0
0 1660 0
0 1670 0
0 1680 0
0 1690 0
0 1700 0
0 1710 0
0 1720 0
0 1730 0
0 1740 0
0 1750 0
0 1760 0
0 1770 0
0 1780 0
0 1790 0
0 1800 0
0 1810 0
0 1820 0
0 1830 0
0 1840 0
0 1850 0
0 1860 0
0 1870 0
0 1880 0
0 1890 0
0 1900 0
0 1910 0
0 1920 0
0 1930 0
0 1940 0
0 1950 0
0 1960 0
0 1970 0
0 1980 0
0 1990 0
0 2000 0
0 2010 0
0 2020 0
0 2030 0
0 2040 0
0 2050 0
0 2060 0
0 2070 0
0 2080 0
0 2090 0
0 2100 0
0 2110 0
0 2120 0
0 2130 0
0 2140 0
0 2150 0
0 2160 0
0 2170 0
0 2180 0
0 2190 0
0 2200 0
0 2210 0
0 2220 0
0 2230 0
0 2240 0
0 2250 0
0 2260 0
0 2270 0
0 2280 0
0 2290 0
0 2300 0
0 2310 0
0 2320 0
0 2330 0
0 2340 0
0 2350 0
0 2360 0
0 2370 0
0 2380 0
0 2390 0
0 2400 0
0 2410 0
0 2420 0
0 2430 0
0 2440 0
0 2450 0
0 2460 0
0 2470 0
0 2480 0
0 2490 0
0 2500 0
0 2510 0
0 2520 0
0 2530 0
0 2540 0
0 2550 0
0 2560 0
0 2570 0
0 2580 0
0 2590 0
0 2600 0
0 2610 0
0 2620 0
0 2630 0
0 2640 0
0 2650 0
0 2660 0
0 2670 0
0 2680 0
0 2690 0
0 2700 0
0 2710 0
0 2720 0
0 2730 0
0 2740 0
0 2750 0
0 2760 0
0 2770 0
0 2780 0
0 2790 0
0 2800 0
0 2810 0
0 2820 0
0 2830 0
0 2840 0
0 2850 0
0 2860 0
0 2870 0
0 2880 0
0 2890 0
0 2900 0
0 2910 0
0 2920 0
0 2930 0
0 2940 0
0 2950 0
0 2960 0
0 2970 0
0 2980 0
0 2990 0
0 3000 0
10 0 0
10 10 0
10 20 0
10 30 0
10 40 0
10 50 0
10 60 0
10 70 0
10 80 0
10 90 0
10 100 0
10 110 0
10 120 0
10 130 0
10 140 0
10 150 0
10 160 0
10 170 0
10 180 0
10 190 0
10 200 0
10 210 0
10 220 0
10 230 0
10 240 0
10 250 0
10 260 0
10 270 0
10 280 0
10 290 0
10 300 0
10 310 0
10 320 0
10 330 0
10 340 0
10 350 0
10 360 0
10 370 0
10 380 0
10 390 0
10 400 0
10 410 0
10 420 0
10 430 0
10 440 0
10 450 0
10 460 0
10 470 0
10 480 0
10 490 0
10 500 0
10 510 0
10 520 0
10 530 0
10 540 0
10 550 0
10 560 0
10 570 0
10 580 0
10 590 0
10 600 0
10 610 0
10 620 0
10 630 0
10 640 0
10 650 0
10 660 0
10 670 0
10 680 0
10 690 0
10 700 0
10 710 0
10 720 0
10 730 0
10 740 0
10 750 0
10 760 0
10 770 0
10 780 0
10 790 0
10 800 0
10 810 0
10 820 0
10 830 0
10 840 0
10 850 0
10 860 0
10 870 0
10 880 0
10 890 0
10 900 0
10 910 0
10 920 0
10 930 0
10 940 0
10 950 0
10 960 0
10 970 0
10 980 0
10 990 0
10 1000 0
10 1010 0
10 1020 0
10 1030 0
10 1040 0
10 1050 0
10 1060 0
10 1070 0
10 1080 0
10 1090 0
10 1100 0
10 1110 0
10 1120 0
10 1130 0
10 1140 0
10 1150 0
10 1160 0
10 1170 0
10 1180 0
10 1190 0
10 1200 0
10 1210 0
10 1220 0
10 1230 0
10 1240 0
10 1250 0
10 1260 0
10 1270 0
10 1280 0
10 1290 0
10 1300 0
10 1310 0
10 1320 0
10 1330 0
10 1340 0
10 1350 0
10 1360 0
10 1370 0
10 1380 0
10 1390 0
10 1400 0
10 1410 0
10 1420 0
10 1430 0
10 1440 0
10 1450 0
10 1460 0
10 1470 0
10 1480 0
10 1490 0
10 1500 0
10 1510 0
10 1520 0
10 1530 0
10 1540 0
10 1550 0
10 1560 0
10 1570 0
10 1580 0
10 1590 0
10 1600 0
10 1610 0
10 1620 0
10 1630 0
10 1640 0
10 1650 0
10 1660 0
10 1670 0
10 1680 0
10 1690 0
10 1700 0
10 1710 0
10 1720 0
10 1730 0
10 1740 0
10 1750 0
10 1760 0
10 1770 0
10 1780 0
10 1790 0
10 1800 0
10 1810 0
10 1820 0
10 1830 0
10 1840 0
10 1850 0
10 1860 0
10 1870 0
10 1880 0
10 1890 0
10 1900 0
10 1910 0
10 1920 0
10 1930 0
10 1940 0
10 1950 0
10 1960 0
10 1970 0
10 1980 0
10 1990 0
10 2000 0
10 2010 0
10 2020 0
10 2030 0
10 2040 0
10 2050 0
10 2060 0
10 2070 0
10 2080 0
10 2090 0
10 2100 0
10 2110 0
10 2120 0
10 2130 0
10 2140 0
10 2150 0
10 2160 0
10 2170 0
10 2180 0
10 2190 0
10 2200 0
10 2210 0
10 2220 0
10 2230 0
10 2240 0
10 2250 0
10 2260 0
10 2270 0
10 2280 0
10 2290 0
10 2300 0
10 2310 0
10 2320 0
10 2330 0
10 2340 0
10 2350 0
10 2360 0
10 2370 0
10 2380 0
10 2390 0
10 2400 0
10 2410 0
10 2420 0
10 2430 0
10 2440 0
10 2450 0
10 2460 0
10 2470 0
10 2480 0
10 2490 0
10 2500 0
10 2510 0
10 2520 0
10 2530 0
10 2540 0
10 2550 0
10 2560 0
10 2570 0
10 2580 0
10 2590 0
10 2600 0
10 2610 0
10 2620 0
10 2630 0
10 2640 0
10 2650 0
10 2660 0
10 2670 0
10 2680 0
10 2690 0
10 2700 0
10 2710 0
10 2720 0
10 2730 0
10 2740 0
10 2750 0
10 2760 0
10 2770 0
10 2780 0
10 2790 0
10 2800 0
10 2810 0
10 2820 0
10 2830 0
10 2840 0
10 2850 0
10 2860 0
10 2870 0
10 2880 0
10 2890 0
10 2900 0
10 2910 0
10 2920 0
10 2930 0
10 2940 0
10 2950 0
10 2960 0
10 2970 0
10 2980 0
10 2990 0
10 3000 0
20 0 0
20 10 0
20 20 0
20 30 0
20 40 0
20 50 0
20 60 0
20 70 0
20 80 0
20 90 0
20 100 0
20 110 0
20 120 0
20 130 0
20 140 0
20 150 0
20 160 0
20 170 0
20 180 0
20 190 0
20 200 0
20 210 0
20 220 0
20 230 0
20 240 0
20 250 0
20 260 0
20 270 0
20 280 0
20 290 0
20 300 0
20 310 0
20 320 0
20 330 0
20 340 0
20 350 0
20 360 0
20 370 0
20 380 0
20 390 0
20 400 0
20 410 0
20 420 0
20 430 0
20 440 0
20 450 0
20 460 0
20 470 0
20 480 0
20 490 0
20 500 0
20 510 0
20 520 0
20 530 0
20 540 0
20 550 0
20 560 0
20 570 0
20 580 0
20 590 0
20 600 0
20 610 0
20 620 0
20 630 0
20 640 0
20 650 0
20 660 0
20 670 0
20 680 0
20 690 0
20 700 0
20 710 0
20 720 0
20 730 0
20 740 0
20 750 0
20 760 0
20 770 0
20 780 0
20 790 0
20 800 0
20 810 0
20 820 0
20 830 0
20 840 0
20 850 0
20 860 0
20 870 0
20 880 0
20 890 0
20 900 0
20 910 0
20 920 0
20 930 0
20 940 0
20 950 0
20 960 0
20 970 0
20 980 0
20 990 0
20 1000 0
20 1010 0
20 1020 0
20 1030 0
20 1040 0
20 1050 0
20 1060 0
20 1070 0
20 1080 0
20 1090 0
20 1100 0
20 1110 0
20 1120 0
20 1130 0
20 1140 0
20 1150 0
20 1160 0
20 1170 0
20 1180 0
20 1190 0
20 1200 0
20 1210 0
20 1220 0
20 1230 0
20 1240 0
20 1250 0
20 1260 0
20 1270 0
20 1280 0
20 1290 0
20 1300 0
20 1310 0
20 1320 0
20 1330 0
20 1340 0
20 1350 0
20 1360 0
20 1370 0
20 1380 0
20 1390 0
20 1400 0
20 1410 0
20 1420 0
20 1430 0
20 1440 0
20 1450 0
20 1460 0
20 1470 0
20 1480 0
20 1490 0
20 1500 0
20 1510 0
20 1520 0
20 1530 0
20 1540 0
20 1550 0
20 1560 0
20 1570 0
20 1580 0
20 1590 0
20 1600 0
20 1610 0
20 1620 0
20 1630 0
20 1640 0
20 1650 0
20 1660 0
20 1670 0
20 1680 0
20 1690 0
20 1700 0
20 1710 0
20 1720 0
20 1730 0
20 1740 0
20 1750 0
20 1760 0
20 1770 0
20 1780 0
20 1790 0
20 1800 0
20 1810 0
20 1820 0
20 1830 0
20 1840 0
20 1850 0
20 1860 0
20 1870 0
20 1880 0
20 1890 0
20 1900 0
20 1910 0
20 1920 0
20 1930 0
20 1940 0
20 1950 0
20 1960 0
20 1970 0
20 1980 0
20 1990 0
20 2000 0
20 2010 0
20 2020 0
20 2030 0
20 2040 0
20 2050 0
20 2060 0
20 2070 0
20 2080 0
20 2090 0
20 2100 0
20 2110 0
20 2120 0
20 2130 0
20 2140 0
20 2150 0
20 2160 0
20 2170 0
20 2180 0
20 2190 0
20 2200 0
20 2210 0
20 2220 0
20 2230 0
20 2240 0
20 2250 0
20 2260 0
20 2270 0
20 2280 0
20 2290 0
20 2300 0
20 2310 0
20 2320 0
20 2330 0
20 2340 0
20 2350 0
20 2360 0
20 2370 0
20 2380 0
20 2390 0
20 2400 0
20 2410 0
20 2420 0
20 2430 0
20 2440 0
20 2450 0
20 2460 0
20 2470 0
20 2480 0
20 2490 0
20 2500 0
20 2510 0
20 2520 0
20 2530 0
20 2540 0
20 2550 0
20 2560 0
20 2570 0
20 2580 0
20 2590 0
20 2600 0
20 2610 0
20 2620 0
20 2630 0
20 2640 0
20 2650 0
20 2660 0
20 2670 0
20 2680 0
20 2690 0
20 2700 0
20 2710 0
20 2720 0
20 2730 0
20 2740 0
20 2750 0
20 2760 0
20 2770 0
20 2780 0
20 2790 0
20 2800 0
20 2810 0
20 2820 0
20 2830 0
20 2840 0
20 2850 0
20 2860 0
20 2870 0
20 2880 0
20 2890 0
20 2900 0
20 2910 0
20 2920 0
20 2930 0
20 2940 0
20 2950 0
20 2960 0
20 2970 0
20 2980 0
20 2990 0
20 3000 0
30 0 0
30 10 0
30 20 0
30 30 0
30 40 0
30 50 0
30 60 0
30 70 0
30 80 0
30 90 0
30 100 0
30 110 0
30 120 0
30 130 0
30 140 0
30 150 0
30 160 0
30 170 0
30 180 0
30 190 0
30 200 0
30 210 0
30 220 0
30 230 0
30 240 0
30 250 0
30 260 0
30 270 0
30 280 0
30 290 0
30 300 0
30 310 0
30 320 0
30 330 0
30 340 0
30 350 0
30 360 0
30 370 0
30 380 0
30 390 0
30 400 0
30 410 0
30 420 0
30 430 0
30 440 0
30 450 0
30 460 0
30 470 0
30 480 0
30 490 0
30 500 0
30 510 0
30 520 0
30 530 0
30 540 0
30 550 0
30 560 0
30 570 0
30 580 0
30 590 0
30 600 0
30 610 0
30 620 0
30 630 0
30 640 0
30 650 0
30 660 0
30 670 0
30 680 0
30 690 0
30 700 0
30 710 0
30 720 0
30 730 0
30 740 0
30 750 0
30 760 0
30 770 0
30 780 0
30 790 0
30 800 0
30 810 0
30 820 0
30 830 0
30 840 0
30 850 0
30 860 0
30 870 0
30 880 0
30 890 0
30 900 0
30 910 0
30 920 0
30 930 0
30 940 0
30 950 0
30 960 0
30 970 0
30 980 0
30 990 0
30 1000 0
30 1010 0
30 1020 0
30 1030 0
30 1040 0
30 1050 0
30 1060 0
30 1070 0
30 1080 0
30 1090 0
30 1100 0
30 1110 0
30 1120 0
30 1130 0
30 1140 0
30 1150 0
30 1160 0
30 1170 0
30 1180 0
30 1190 0
30 1200 0
30 1210 0
30 1220 0
30 1230 0
30 1240 0
30 1250 0
30 1260 0
30 1270 0
30 1280 0
30 1290 0
30 1300 0
30 1310 0
30 1320 0
30 1330 0
30 1340 0
30 1350 0
30 1360 0
30 1370 0
30 1380 0
30 1390 0
30 1400 0
30 1410 0
30 1420 0
30 1430 0
30 1440 0
30 1450 0
30 1460 0
30 1470 0
30 1480 0
30 1490 0
30 1500 0
30 1510 0
30 1520 0
30 1530 0
30 1540 0
30 1550 0
30 1560 0
30 1570 0
30 1580 0
30 1590 0
[...]
POINT_DATA 90601
SCALARS P float
LOOKUP_TABLE default
90.5895
90.5895
90.6264
90.7145
90.8624
91.0691
91.3223
91.6009
91.8807
92.1386
92.3564
92.5216
92.6274
92.6717
92.6557
92.5830
92.4583
92.2869
92.0744
91.8257
91.5458
91.2391
90.9092
90.5596
90.1932
89.8125
89.4195
89.0162
88.6040
88.1843
87.7583
87.3267
86.8906
86.4504
86.0069
85.5605
85.1116
84.6607
84.2079
83.7535
83.2978
82.8410
82.3832
81.9245
81.4651
81.0051
80.5445
80.0835
79.6221
79.1603
78.6982
78.2358
77.7733
77.3105
76.8475
76.3844
75.9212
75.4579
74.9945
74.5309
74.0674
73.6037
73.1400
72.6762
72.2124
71.7486
71.2847
70.8209
70.3569
69.8930
69.4290
68.9651
68.5011
68.0371
67.5730
67.1090
66.6450
66.1810
65.7169
65.2529
64.7888
64.3247
63.8607
63.3966
62.9325
62.4685
62.0044
61.5403
61.0762
60.6121
60.1480
59.6840
59.2199
58.7558
58.2917
57.8276
57.3635
56.8994
56.4353
55.9712
55.5071
55.0430
54.5789
54.1148
53.6507
53.1866
52.7225
52.2584
51.7942
51.3301
50.8660
50.4019
49.9377
49.4736
49.0094
48.5453
48.0811
47.6169
47.1528
46.6886
46.2244
45.7602
45.2960
44.8317
44.3675
43.9032
43.4390
42.9747
42.5104
42.0461
41.5817
41.1174
40.6530
40.1886
39.7243
39.2598
38.7954
38.3310
37.8665
37.4021
36.9376
36.4732
36.0087
35.5443
35.0798
34.6154
34.1511
33.6867
33.2225
32.7583
32.2941
31.8301
31.3662
30.9024
30.4388
29.9754
29.5122
29.0492
28.5866
28.1242
27.6622
27.2006
26.7395
26.2789
25.8189
25.3594
24.9007
24.4427
23.9856
23.5294
23.0742
22.6201
22.1672
21.7156
21.2653
20.8166
20.3695
19.9242
19.4807
19.0393
18.5999
18.1629
17.7283
17.2963
16.8670
16.4406
16.0173
15.5972
15.1805
14.7674
14.3580
13.9525
13.5511
13.1540
12.7613
12.3732
11.9899
11.6116
11.2384
10.8705
10.5080
10.1512
9.8002
9.4550
9.1160
8.7831
8.4566
8.1366
7.8231
7.5164
7.2164
6.9232
6.6371
6.3579
6.0859
5.8210
5.5632
5.3127
5.0694
4.8333
4.6044
4.3827
4.1683
3.9609
3.7607
3.5676
3.3814
3.2021
3.0296
2.8639
2.7048
2.5523
2.4061
2.2662
2.1325
2.0048
1.8830
1.7669
1.6563
1.5512
1.4514
1.3566
1.2668
1.1818
1.1014
1.0255
0.9538
0.8862
0.8226
0.7628
0.7066
0.6538
0.6044
0.5582
0.5149
0.4745
0.4368
0.4017
0.3690
0.3386
0.3104
0.2842
0.2599
0.2375
0.2168
0.1976
0.1800
0.1637
0.1488
0.1350
0.1224
0.1109
0.1003
0.0907
0.0818
0.0738
0.0664
0.0598
0.0537
0.0482
0.0432
0.0387
0.0346
0.0309
0.0276
0.0246
0.0219
0.0195
0.0173
0.0154
0.0136
0.0121
0.0107
0.0094
0.0083
0.0073
0.0065
0.0057
0.0051
0.0046
0.0043
90.5895
90.5895
90.6264
90.7145
90.8624
91.0691
91.3223
91.6009
91.8807
92.1386
92.3564
92.5216
92.6274
92.6717
92.6557
92.5830
92.4583
92.2869
92.0744
91.8257
91.5458
91.2391
90.9092
90.5596
90.1932
89.8125
89.4195
89.0162
88.6040
88.1843
87.7583
87.3267
86.8906
86.4504
86.0069
85.5605
85.1116
84.6607
84.2079
83.7535
83.2978
82.8410
82.3832
81.9245
81.4651
81.0051
80.5445
80.0835
79.6221
79.1603
78.6982
78.2358
77.7733
77.3105
76.8475
76.3844
75.9212
75.4579
74.9945
74.5309
74.0674
73.6037
73.1400
72.6762
72.2124
71.7486
71.2847
70.8209
70.3569
69.8930
69.4290
68.9651
68.5011
68.0371
67.5730
67.1090
66.6450
66.1810
65.7169
65.2529
64.7888
64.3247
63.8607
63.3966
62.9325
62.4685
62.0044
61.5403
61.0762
60.6121
60.1480
59.6840
59.2199
58.7558
58.2917
57.8276
57.3635
56.8994
56.4353
55.9712
55.5071
55.0430
54.5789
54.1148
53.6507
53.1866
52.7225
52.2584
51.7942
51.3301
50.8660
50.4019
49.9377
49.4736
49.0094
48.5453
48.0811
47.6169
47.1528
46.6886
46.2244
45.7602
45.2960
44.8317
44.3675
43.9032
43.4390
42.9747
42.5104
42.0461
41.5817
41.1174
40.6530
40.1886
39.7243
39.2598
38.7954
38.3310
37.8665
37.4021
36.9376
36.4732
36.0087
35.5443
35.0798
34.6154
34.1511
33.6867
33.2225
32.7583
32.2941
31.8301
31.3662
30.9024
30.4388
29.9754
29.5122
29.0492
28.5866
28.1242
27.6622
27.2006
26.7395
26.2789
25.8189
25.3594
24.9007
24.4427
23.9856
23.5294
23.0742
22.6201
22.1672
21.7156
21.2653
20.8166
20.3695
19.9242
19.4807
19.0393
18.5999
18.1629
17.7283
17.2963
16.8670
16.4406
16.0173
15.5972
15.1805
14.7674
14.3580
13.9525
13.5511
13.1540
12.7613
12.3732
11.9899
11.6116
11.2384
10.8705
10.5080
10.1512
9.8002
9.4550
9.1160
8.7831
8.4566
8.1366
7.8231
7.5164
7.2164
6.9232
6.6371
6.3579
6.0859
5.8210
5.5632
5.3127
5.0694
4.8333
4.6044
4.3827
4.1683
3.9609
3.7607
3.5676
3.3814
3.2021
3.0296
2.8639
2.7048
2.5523
2.4061
2.2662
2.1325
2.0048
1.8830
1.7669
1.6563
1.5512
1.4514
1.3566
1.2668
1.1818
1.1014
1.0255
0.9538
0.8862
0.8226
0.7628
0.7066
0.6538
0.6044
0.5582
0.5149
0.4745
0.4368
0.4017
0.3690
0.3386
0.3104
0.2842
0.2599
0.2375
0.2168
0.1976
0.1800
0.1637
0.1488
0.1350
0.1224
0.1109
0.1003
0.0907
0.0818
0.0738
0.0664
0.0598
0.0537
0.0482
0.0432
0.0387
0.0346
0.0309
0.0276
0.0246
0.0219
0.0195
0.0173
0.0154
0.0136
0.0121
0.0107
0.0094
0.0083
0.0073
0.0065
0.0057
0.0051
0.0046
0.0043
90.8807
90.8807
90.9295
91.0451
91.2364
91.4971
91.8039
92.1250
92.4285
92.6893
92.8911
93.0260
93.0919
93.0915
93.0294
92.9118
92.7449
92.5352
92.2882
92.0093
91.7030
91.3734
91.0239
90.6574
90.2766
89.8836
89.4802
89.0680
88.6483
88.2221
87.7906
87.3544
86.9143
86.4708
86.0244
85.5755
85.1245
84.6717
84.2174
83.7617
83.3049
82.8471
82.3885
81.9291
81.4691
81.0085
80.5475
80.0861
79.6243
79.1622
78.6999
78.2373
77.7745
77.3116
76.8485
76.3853
75.9220
75.4585
74.9950
74.5314
74.0678
73.6041
73.1403
72.6765
72.2127
71.7488
71.2849
70.8210
70.3571
69.8931
69.4291
68.9652
68.5012
68.0371
67.5731
67.1091
66.6450
66.1810
65.7169
65.2529
64.7888
64.3248
63.8607
63.3966
62.9325
62.4685
62.0044
61.5403
61.0762
60.6121
60.1481
59.6840
59.2199
58.7558
58.2917
57.8276
57.3635
56.8994
56.4353
55.9712
55.5071
55.0430
54.5789
54.1148
53.6507
53.1866
52.7225
52.2584
51.7942
51.3301
50.8660
50.4019
49.9377
49.4736
49.0094
48.5453
48.0811
47.6169
47.1528
46.6886
46.2244
45.7602
45.2960
44.8317
44.3675
43.9032
43.4390
42.9747
42.5104
42.0461
41.5817
41.1174
40.6530
40.1886
39.7243
39.2598
38.7954
38.3310
37.8665
37.4021
36.9376
36.4732
36.0087
35.5443
35.0798
34.6154
34.1511
33.6867
33.2225
32.7583
32.2941
31.8301
31.3662
30.9024
30.4388
29.9754
29.5122
29.0492
28.5866
28.1242
27.6622
27.2006
26.7395
26.2789
25.8189
25.3594
24.9007
24.4427
23.9856
23.5294
23.0742
22.6201
22.1672
21.7156
21.2653
20.8166
20.3695
19.9242
19.4807
19.0393
18.5999
18.1629
17.7283
17.2963
16.8670
16.4406
16.0173
15.5972
15.1805
14.7674
14.3580
13.9525
13.5511
13.1540
12.7613
12.3732
11.9899
11.6116
11.2384
10.8705
10.5080
10.1512
9.8002
9.4550
9.1160
8.7831
8.4566
8.1366
7.8231
7.5164
7.2164
6.9232
6.6371
6.3579
6.0859
5.8210
5.5632
5.3127
5.0694
4.8333
4.6044
4.3827
4.1683
3.9609
3.7607
3.5676
3.3814
3.2021
3.0296
2.8639
2.7048
2.5523
2.4061
2.2662
2.1325
2.0048
1.8830
1.7669
1.6563
1.5512
1.4514
1.3566
1.2668
1.1818
1.1014
1.0255
0.9538
0.8862
0.8226
0.7628
0.7066
0.6538
0.6044
0.5582
0.5149
0.4745
0.4368
0.4017
0.3690
0.3386
0.3104
0.2842
0.2599
0.2375
0.2168
0.1976
0.1800
0.1637
0.1488
0.1350
0.1224
0.1109
0.1003
0.0907
0.0818
0.0738
0.0664
0.0598
0.0537
0.0482
0.0432
0.0387
0.0346
0.0309
0.0276
0.0246
0.0219
0.0195
0.0173
0.0154
0.0136
0.0121
0.0107
0.0094
0.0083
0.0073
0.0065
0.0057
0.0051
0.0046
0.0043
91.6573
91.6573
91.7427
91.9435
92.2692
92.6938
93.1571
93.5924
93.9491
94.2009
94.3420
94.3793
94.3262
94.1974
94.0071
93.7671
93.4874
93.1759
92.8388
92.4810
92.1063
91.7176
91.3175
90.9078
90.4901
90.0657
89.6355
89.2006
88.7615
88.3190
87.8734
87.4253
86.9751
86.5229
86.0691
85.6140
85.1576
84.7002
84.2419
83.7829
83.3231
82.8628
82.4021
81.9408
81.4792
81.0173
80.5551
80.0927
79.6300
79.1672
78.7042
78.2411
77.7778
77.3144
76.8510
76.3874
75.9238
75.4602
74.9964
74.5327
74.0689
73.6050
73.1412
72.6773
72.2133
71.7494
71.2854
70.8214
70.3575
69.8934
69.4294
68.9654
68.5014
68.0373
67.5733
67.1092
66.6452
66.1811
65.7170
65.2530
64.7889
64.3248
63.8608
63.3967
62.9326
62.4685
62.0044
61.5403
61.0763
60.6122
60.1481
59.6840
59.2199
58.7558
58.2917
57.8276
57.3635
56.8994
56.4353
55.9712
55.5071
55.0430
54.5789
54.1148
53.6507
53.1866
52.7225
52.2584
51.7942
51.3301
50.8660
50.4019
49.9377
49.4736
49.0094
48.5453
48.0811
47.6169
47.1528
46.6886
46.2244
45.7602
45.2960
44.8317
44.3675
43.9032
43.4390
42.9747
42.5104
42.0461
41.5817
41.1174
40.6530
40.1886
39.7243
39.2598
38.7954
38.3310
37.8665
37.4021
36.9376
36.4732
36.0087
35.5443
35.0798
34.6154
34.1511
33.6867
33.2225
32.7583
32.2941
31.8301
31.3662
30.9024
30.4388
29.9754
29.5122
29.0492
28.5866
28.1242
27.6622
27.2006
26.7395
26.2789
25.8189
25.3594
24.9007
24.4427
23.9856
23.5294
23.0742
22.6201
22.1672
21.7156
21.2653
20.8166
20.3695
19.9242
19.4807
19.0393
18.5999
18.1629
17.7283
17.2963
16.8670
16.4406
16.0173
15.5972
15.1805
14.7674
14.3580
13.9525
13.5511
13.1540
12.7613
12.3732
11.9899
11.6116
11.2384
10.8705
10.5080
10.1512
9.8002
9.4550
9.1160
8.7831
8.4566
8.1366
7.8231
7.5164
7.2164
6.9232
6.6371
6.3579
6.0859
5.8210
5.5632
5.3127
5.0694
4.8333
4.6044
4.3827
4.1683
3.9609
3.7607
3.5676
3.3814
3.2021
3.0296
2.8639
2.7048
2.5523
2.4061
2.2662
2.1325
2.0048
1.8830
1.7669
1.6563
1.5512
1.4514
1.3566
1.2668
1.1818
1.1014
1.0255
0.9538
0.8862
0.8226
0.7628
0.7066
0.6538
0.6044
0.5582
0.5149
0.4745
0.4368
0.4017
0.3690
0.3386
0.3104
0.2842
0.2599
0.2375
0.2168
0.1976
0.1800
0.1637
0.1488
0.1350
0.1224
0.1109
0.1003
0.0907
0.0818
0.0738
0.0664
0.0598
0.0537
0.0482
0.0432
0.0387
0.0346
0.0309
0.0276
0.0246
0.0219
0.0195
0.0173
0.0154
0.0136
0.0121
0.0107
0.0094
0.0083
0.0073
0.0065
0.0057
0.0051
0.0046
0.0043
93.2257
93.2257
93.4041
93.8226
94.4918
95.3262
96.1511
96.8118
97.2301
97.3984
97.3503
97.1347
96.7994
96.3842
95.9192
95.4254
94.9171
94.4033
93.8893
93.3783
92.8717
92.3702
91.8736
91.3817
90.8941
90.4102
89.9296
89.4517
88.9761
88.5025
88.0305
87.5599
87.0905
86.6219
86.1542
85.6871
85.2205
84.7544
84.2886
83.8232
83.3579
82.8929
82.4280
81.9633
81.4987
81.0342
80.5697
80.1054
79.6410
79.1767
78.7125
78.2483
77.7841
77.3199
76.8557
76.3916
75.9274
75.4633
74.9992
74.5351
74.0710
73.6069
73.1428
72.6787
72.2146
71.7505
71.2864
70.8223
70.3582
69.8941
69.4300
68.9659
68.5018
68.0377
67.5736
67.1095
66.6454
66.1813
65.7172
65.2531
64.7891
64.3250
63.8609
63.3968
62.9327
62.4686
62.0045
61.5404
61.0763
60.6122
60.1481
59.6840
59.2199
58.7558
58.2917
57.8276
57.3635
56.8994
56.4353
55.9712
55.5071
55.0430
54.5789
54.1148
53.6507
53.1866
52.7225
52.2584
51.7942
51.3301
50.8660
50.4019
49.9377
49.4736
49.0094
48.5453
48.0811
47.6169
47.1528
46.6886
46.2244
45.7602
45.2960
44.8317
44.3675
43.9032
43.4390
42.9747
42.5104
42.0461
41.5817
41.1174
40.6530
40.1886
39.7243
39.2598
38.7954
38.3310
37.8665
37.4021
36.9376
36.4732
36.0087
35.5443
35.0798
34.6154
34.1511
33.6867
33.2225
32.7583
32.2941
31.8301
31.3662
30.9024
30.4388
29.9754
29.5122
29.0492
28.5866
28.1242
27.6622
27.2006
26.7395
26.2789
25.8189
25.3594
24.9007
24.4427
23.9856
23.5294
23.0742
22.6201
22.1672
21.7156
21.2653
20.8166
20.3695
19.9242
19.4807
19.0393
18.5999
18.1629
17.7283
17.2963
16.8670
16.4406
16.0173
15.5972
15.1805
14.7674
14.3580
13.9525
13.5511
13.1540
12.7613
12.3732
11.9899
11.6116
11.2384
10.8705
10.5080
10.1512
9.8002
9.4550
9.1160
8.7831
8.4566
8.1366
7.8231
7.5164
7.2164
6.9232
6.6371
6.3579
6.0859
5.8210
5.5632
5.3127
5.0694
4.8333
4.6044
4.3827
4.1683
3.9609
3.7607
3.5676
3.3814
3.2021
3.0296
2.8639
2.7048
2.5523
2.4061
2.2662
2.1325
2.0048
1.8830
1.7669
1.6563
1.5512
1.4514
1.3566
1.2668
1.1818
1.1014
1.0255
0.9538
0.8862
0.8226
0.7628
0.7066
0.6538
0.6044
0.5582
0.5149
0.4745
0.4368
0.4017
0.3690
0.3386
0.3104
0.2842
0.2599
0.2375
0.2168
0.1976
0.1800
0.1637
0.1488
0.1350
0.1224
0.1109
0.1003
0.0907
0.0818
0.0738
0.0664
0.0598
0.0537
0.0482
0.0432
0.0387
0.0346
0.0309
0.0276
0.0246
0.0219
0.0195
0.0173
0.0154
0.0136
0.0121
0.0107
0.0094
0.0083
0.0073
0.0065
0.0057
0.0051
0.0046
0.0043
96.0531
96.0531
96.4545
97.4039
98.9220
100.7478
102.3379
103.3456
103.7053
103.5203
102.9475
102.1337
101.1924
100.2018
99.2114
98.2500
97.3321
96.4634
95.6445
94.8725
94.1434
93.4526
92.7953
92.1669
91.5634
90.9811
90.4170
89.8681
89.3323
88.8074
88.2918
87.7839
87.2827
86.7871
86.2962
85.8093
85.3258
84.8451
84.3669
83.8907
83.4163
82.9434
82.4717
82.0011
81.5315
81.0626
80.5944
80.1267
79.6596
79.1929
78.7265
78.2605
77.7947
77.3292
76.8638
76.3986
75.9336
75.4687
75.0039
74.5392
74.0745
73.6100
73.1455
72.6810
72.2166
71.7523
71.2880
70.8237
70.3594
69.8951
69.4309
68.9667
68.5025
68.0383
67.5742
67.1100
66.6459
66.1817
65.7176
65.2534
64.7893
64.3252
63.8611
63.3970
62.9328
62.4687
62.0046
61.5405
61.0764
60.6123
60.1482
59.6841
59.2200
58.7559
58.2918
57.8277
57.3636
56.8995
56.4354
55.9713
55.5072
55.0431
54.5789
54.1148
53.6507
53.1866
52.7225
52.2584
51.7943
51.3301
50.8660
50.4019
49.9377
49.4736
49.0094
48.5453
48.0811
47.6170
47.1528
46.6886
46.2244
45.7602
45.2960
44.8317
44.3675
43.9032
43.4390
42.9747
42.5104
42.0461
41.5817
41.1174
40.6530
40.1886
39.7243
39.2598
38.7954
38.3310
37.8665
37.4021
36.9376
36.4732
36.0087
35.5443
35.0798
34.6154
34.1511
33.6867
33.2225
32.7583
32.2941
31.8301
31.3662
30.9024
30.4388
29.9754
29.5122
29.0492
28.5866
28.1242
27.6622
27.2006
26.7395
26.2789
25.8189
25.3594
24.9007
24.4427
23.9856
23.5294
23.0742
22.6201
22.1672
21.7156
21.2653
20.8166
20.3695
19.9242
19.4807
19.0393
18.5999
18.1629
17.7283
17.2963
16.8670
16.4406
16.0173
15.5972
15.1805
14.7674
14.3580
13.9525
13.5511
13.1540
12.7613
12.3732
11.9899
11.6116
11.2384
10.8705
10.5080
10.1512
9.8002
9.4550
9.1160
8.7831
8.4566
8.1366
7.8231
7.5164
7.2164
6.9232
6.6371
6.3579
6.0859
5.8210
5.5632
5.3127
5.0694
4.8333
4.6044
4.3827
4.1683
3.9609
3.7607
3.5676
3.3814
3.2021
3.0296
2.8639
2.7048
2.5523
2.4061
2.2662
2.1325
2.0048
1.8830
1.7669
1.6563
1.5512
1.4514
1.3566
1.2668
1.1818
1.1014
1.0255
0.9538
0.8862
0.8226
0.7628
0.7066
0.6538
0.6044
0.5582
0.5149
0.4745
0.4368
0.4017
0.3690
0.3386
0.3104
0.2842
0.2599
0.2375
0.2168
0.1976
0.1800
0.1637
0.1488
0.1350
0.1224
0.1109
0.1003
0.0907
0.0818
0.0738
0.0664
0.0598
0.0537
0.0482
0.0432
0.0387
0.0346
0.0309
0.0276
0.0246
0.0219
0.0195
0.0173
0.0154
0.0136
0.0121
0.0107
0.0094
0.0083
0.0073
0.0065
0.0057
0.0051
0.0046
0.0043
100.8064
100.8064
101.7258
103.9482
107.5788
111.8580
114.9344
116.1879
115.8865
114.5562
112.6665
110.5478
108.4035
106.3462
104.4306
102.6766
101.0845
99.6446
98.3426
97.1626
96.0888
95.1066
94.2030
93.3661
92.5861
91.8542
91.1630
90.5063
89.8786
89.2756
88.6934
88.1288
87.5792
87.0421
86.5157
85.9985
85.4889
84.9859
84.4885
83.9958
83.5072
83.0220
82.5398
82.0602
81.5827
81.1070
80.6330
80.1603
79.6887
79.2182
78.7486
78.2797
77.8114
77.3437
76.8765
76.4097
75.9433
75.4771
75.0112
74.5456
74.0802
73.6149
73.1498
72.6848
72.2199
71.7552
71.2905
70.8259
70.3613
69.8969
69.4324
68.9680
68.5037
68.0393
67.5751
67.1108
66.6465
66.1823
65.7181
65.2539
64.7897
64.3255
63.8614
63.3972
62.9331
62.4689
62.0048
61.5407
61.0765
60.6124
60.1483
59.6842
59.2201
58.7560
58.2918
57.8277
57.3636
56.8995
56.4354
55.9713
55.5072
55.0431
54.5790
54.1149
53.6507
53.1866
52.7225
52.2584
51.7943
51.3301
50.8660
50.4019
49.9377
49.4736
49.0094
48.5453
48.0811
47.6170
47.1528
46.6886
46.2244
45.7602
45.2960
44.8317
44.3675
43.9032
43.4390
42.9747
42.5104
42.0461
41.5817
41.1174
40.6530
40.1886
39.7243
39.2598
38.7954
38.3310
37.8665
37.4021
36.9376
36.4732
36.0087
35.5443
35.0798
34.6154
34.1511
33.6867
33.2225
32.7583
32.2941
31.8301
31.3662
30.9024
30.4388
29.9754
29.5122
29.0492
28.5866
28.1242
27.6622
27.2006
26.7395
26.2789
25.8189
25.3594
24.9007
24.4427
23.9856
23.5294
23.0742
22.6201
22.1672
21.7156
21.2653
20.8166
20.3695
19.9242
19.4807
19.0393
18.5999
18.1629
17.7283
17.2963
16.8670
16.4406
16.0173
15.5972
15.1805
14.7674
14.3580
13.9525
13.5511
13.1540
12.7613
12.3732
11.9899
11.6116
11.2384
10.8705
10.5080
10.1512
9.8002
9.4550
9.1160
8.7831
8.4566
8.1366
7.8231
7.5164
7.2164
6.9232
6.6371
6.3579
6.0859
5.8210
5.5632
5.3127
5.0694
4.8333
4.6044
4.3827
4.1683
3.9609
3.7607
3.5676
3.3814
3.2021
3.0296
2.8639
2.7048
2.5523
2.4061
2.2662
2.1325
2.0048
1.8830
1.7669
1.6563
1.5512
1.4514
1.3566
1.2668
1.1818
1.1014
1.0255
0.9538
0.8862
0.8226
0.7628
0.7066
0.6538
0.6044
0.5582
0.5149
0.4745
0.4368
0.4017
0.3690
0.3386
0.3104
0.2842
0.2599
0.2375
0.2168
0.1976
0.1800
0.1637
0.1488
0.1350
0.1224
0.1109
0.1003
0.0907
0.0818
0.0738
0.0664
0.0598
0.0537
0.0482
0.0432
0.0387
0.0346
0.0309
0.0276
0.0246
0.0219
0.0195
0.0173
0.0154
0.0136
0.0121
0.0107
0.0094
0.0083
0.0073
0.0065
0.0057
0.0051
0.0046
0.0043
108.3297
108.3297
110.3996
115.6115
124.6037
135.3810
140.7644
140.8806
137.8249
133.3424
128.4792
123.7673
119.4384
115.5672
112.1524
109.1591
106.5404
104.2475
102.2343
100.4596
98.8870
97.4855
96.2283
95.0930
94.0604
93.1144
92.2415
91.4302
90.6711
89.9559
89.2780
88.6317
88.0120
87.4150
86.8373
86.2760
85.7286
85.1931
84.6677
84.1509
83.6415
83.1385
82.6408
82.1478
81.6587
81.1731
80.6904
80.2102
79.7322
79.2561
78.7816
78.3084
77.8365
77.3656
76.8956
76.4263
75.9578
75.4898
75.0223
74.5553
74.0887
73.6223
73.1563
72.6905
72.2249
71.7595
71.2943
70.8292
70.3643
69.8994
69.4347
68.9700
68.5054
68.0409
67.5764
67.1120
66.6476
66.1832
65.7189
65.2546
64.7903
64.3261
63.8619
63.3977
62.9335
62.4693
62.0051
61.5409
61.0768
60.6126
60.1485
59.6843
59.2202
58.7561
58.2920
57.8278
57.3637
56.8996
56.4355
55.9714
55.5072
55.0431
54.5790
54.1149
53.6508
53.1867
52.7225
52.2584
51.7943
51.3302
50.8660
50.4019
49.9378
49.4736
49.0095
48.5453
48.0811
47.6170
47.1528
46.6886
46.2244
45.7602
45.2960
44.8317
44.3675
43.9032
43.4390
42.9747
42.5104
42.0461
41.5817
41.1174
40.6530
40.1886
39.7243
39.2598
38.7954
38.3310
37.8665
37.4021
36.9376
36.4732
36.0087
35.5443
35.0798
34.6154
34.1511
33.6867
33.2225
32.7583
32.2941
31.8301
31.3662
30.9024
30.4388
29.9754
29.5122
29.0492
28.5866
28.1242
27.6622
27.2006
26.7395
26.2789
25.8189
25.3594
24.9007
24.4427
23.9856
23.5294
23.0742
22.6201
22.1672
21.7156
21.2653
20.8166
20.3695
19.9242
19.4807
19.0393
18.5999
18.1629
17.7283
17.2963
16.8670
16.4406
16.0173
15.5972
15.1805
14.7674
14.3580
13.9525
13.5511
13.1540
12.7613
12.3732
11.9899
11.6116
11.2384
10.8705
10.5080
10.1512
9.8002
9.4550
9.1160
8.7831
8.4566
8.1366
7.8231
7.5164
7.2164
6.9232
6.6371
6.3579
6.0859
5.8210
5.5632
5.3127
5.0694
4.8333
4.6044
4.3827
4.1683
3.9609
3.7607
3.5676
3.3814
3.2021
3.0296
2.8639
2.7048
2.5523
2.4061
2.2662
2.1325
2.0048
1.8830
1.7669
1.6563
1.5512
1.4514
1.3566
1.2668
1.1818
1.1014
1.0255
0.9538
0.8862
0.8226
0.7628
0.7066
0.6538
0.6044
0.5582
0.5149
0.4745
0.4368
0.4017
0.3690
0.3386
0.3104
0.2842
0.2599
0.2375
0.2168
0.1976
0.1800
0.1637
0.1488
0.1350
0.1224
0.1109
0.1003
0.0907
0.0818
0.0738
0.0664
0.0598
0.0537
0.0482
0.0432
0.0387
0.0346
0.0309
0.0276
0.0246
0.0219
0.0195
0.0173
0.0154
0.0136
0.0121
0.0107
0.0094
0.0083
0.0073
0.0065
0.0057
0.0051
0.0046
0.0043
119.4309
119.4309
123.8566
135.7554
158.5683
188.8803
194.2608
186.6159
174.8704
162.9516
152.2112
142.9477
135.0857
128.4429
122.8262
118.0625
114.0050
110.5321
107.5441
104.9588
102.7090
100.7391
99.0033
97.4637
96.0886
94.8520
93.7319
92.7100
91.7712
90.9025
90.0933
89.3344
88.6183
87.9385
87.2896
86.6671
86.0670
85.4861
84.9216
84.3710
83.8325
83.3042
82.7848
82.2729
81.7675
81.2678
80.7728
80.2820
79.7947
79.3106
78.8291
78.3499
77.8727
77.3972
76.9232
76.4505
75.9789
75.5082
75.0385
74.5694
74.1010
73.6331
73.1658
72.6988
72.2322
71.7659
71.2999
70.8341
70.3686
69.9032
69.4380
68.9729
68.5080
68.0431
67.5784
67.1137
66.6491
66.1846
65.7201
65.2557
64.7913
64.3269
63.8626
63.3983
62.9340
62.4698
62.0055
61.5413
61.0771
60.6129
60.1487
59.6846
59.2204
58.7563
58.2921
57.8280
57.3638
56.8997
56.4356
55.9714
55.5073
55.0432
54.5791
54.1149
53.6508
53.1867
52.7226
52.2584
51.7943
51.3302
50.8660
50.4019
49.9378
49.4736
49.0095
48.5453
48.0811
47.6170
47.1528
46.6886
46.2244
45.7602
45.2960
44.8317
44.3675
43.9032
43.4390
42.9747
42.5104
42.0461
41.5817
41.1174
40.6530
40.1886
39.7243
39.2598
38.7954
38.3310
37.8665
37.4021
36.9376
36.4732
36.0087
35.5443
35.0798
34.6154
34.1511
33.6867
33.2225
32.7583
32.2941
31.8301
31.3662
30.9024
30.4388
29.9754
29.5122
29.0492
28.5866
28.1242
27.6622
27.2006
26.7395
26.2789
25.8189
25.3594
24.9007
24.4427
23.9856
23.5294
23.0742
22.6201
22.1672
21.7156
21.2653