# vtk DataFile Version 5.0
Example 3D regular grid VTK file.
ASCII
DATASET UNSTRUCTURED_GRID
POINTS 90601 float
0 0 0
0 10 0
0 20 0
0 30 0
0 40 0
0 50 0
0 60 0
0 70 0
0 80 0
0 90 0
0 100 0
0 110 0
0 120 0
0 130 0
0 140 0
0 150 0
0 160 0
0 170 0
0 180 0
0 190 0
0 200 0
0 210 0
0 220 0
0 230 0
0 240 0
0 250 0
0 260 0
0 270 0
0 280 0
0 290 0
0 300 0
0 310 0
0 320 0
0 330 0
0 340 0
0 350 0
0 360 0
0 370 0
0 380 0
0 390 0
0 400 0
0 410 0
0 420 0
0 430 0
0 440 0
0 450 0
0 460 0
0 470 0
0 480 0
0 490 0
0 500 0
0 510 0
0 520 0
0 530 0
0 540 0
0 550 0
0 560 0
0 570 0
0 580 0
0 590 0
0 600 0
0 610 0
0 620 0
0 630 0
0 640 0
0 650 0
0 660 0
0 670 0
0 680 0
0 690 0
0 700 0
0 710 0
0 720 0
0 730 0
0 740 0
0 750 0
0 760 0
0 770 0
0 780 0
0 790 0
0 800 0
0 810 0
0 820 0
0 830 0
0 840 0
0 850 0
0 860 0
0 870 0
0 880 0
0 890 0
0 900 0
0 910 0
0 920 0
0 930 0
0 940 0
0 950 0
0 960 0
0 970 0
0 980 0
0 990 0
0 1000 0
0 1010 0
0 1020 0
0 1030 0
0 1040 0
0 1050 0
0 1060 0
0 1070 0
0 1080 0
0 1090 0
0 1100 0
0 1110 0
0 1120 0
0 1130 0
0 1140 0
0 1150 0
0 1160 0
0 1170 0
0 1180 0
0 1190 0
0 1200 0
0 1210 0
0 1220 0
0 1230 0
0 1240 0
0 1250 0
0 1260 0
0 1270 0
0 1280 0
0 1290 0
0 1300 0
0 1310 0
0 1320 0
0 1330 0
0 1340 0
0 1350 0
0 1360 0
0 1370 0
0 1380 0
0 1390 0
0 1400 0
0 1410 0
0 1420 0
0 1430 0
0 1440 0
0 1450 0
0 1460 0
0 1470 0
0 1480 0
0 1490 0
0 1500 0
0 1510 0
0 1520 0
0 1530 0
0 1540 0
0 1550 0
0 1560 0
0 1570 0
0 1580 0
0 1590 0
0 1600 0
0 1610 0
0 1620 0
0 1630 0
0 1640 0
0 1650 0
0 1660 0
0 1670 0
0 1680 0
0 1690 0
0 1700 0
0 1710 0
0 1720 0
0 1730 0
0 1740 0
0 1750 0
0 1760 0
0 1770 0
0 1780 0
0 1790 0
0 1800 0
0 1810 0
0 1820 0
0 1830 0
0 1840 0
0 1850 0
0 1860 0
0 1870 0
0 1880 0
0 1890 0
0 1900 0
0 1910 0
0 1920 0
0 1930 0
0 1940 0
0 1950 0
0 1960 0
0 1970 0
0 1980 0
0 1990 0
0 2000 0
0 2010 0
0 2020 0
0 2030 0
0 2040 0
0 2050 0
0 2060 0
0 2070 0
0 2080 0
0 2090 0
0 2100 0
0 2110 0
0 2120 0
0 2130 0
0 2140 0
0 2150 0
0 2160 0
0 2170 0
0 2180 0
0 2190 0
0 2200 0
0 2210 0
0 2220 0
0 2230 0
0 2240 0
0 2250 0
0 2260 0
0 2270 0
0 2280 0
0 2290 0
0 2300 0
0 2310 0
0 2320 0
0 2330 0
0 2340 0
0 2350 0
0 2360 0
0 2370 0
0 2380 0
0 2390 0
0 2400 0
0 2410 0
0 2420 0
0 2430 0
0 2440 0
0 2450 0
0 2460 0
0 2470 0
0 2480 0
0 2490 0
0 2500 0
0 2510 0
0 2520 0
0 2530 0
0 2540 0
0 2550 0
0 2560 0
0 2570 0
0 2580 0
0 2590 0
0 2600 0
0 2610 0
0 2620 0
0 2630 0
0 2640 0
0 2650 0
0 2660 0
0 2670 0
0 2680 0
0 2690 0
0 2700 0
0 2710 0
0 2720 0
0 2730 0
0 2740 0
0 2750 0
0 2760 0
0 2770 0
0 2780 0
0 2790 0
0 2800 0
0 2810 0
0 2820 0
0 2830 0
0 2840 0
0 2850 0
0 2860 0
0 2870 0
0 2880 0
0 2890 0
0 2900 0
0 2910 0
0 2920 0
0 2930 0
0 2940 0
0 2950 0
0 2960 0
0 2970 0
0 2980 0
0 2990 0
0 3000 0
10 0 0
10 10 0
10 20 0
10 30 0
10 40 0
10 50 0
10 60 0
10 70 0
10 80 0
10 90 0
10 100 0
10 110 0
10 120 0
10 130 0
10 140 0
10 150 0
10 160 0
10 170 0
10 180 0
10 190 0
10 200 0
10 210 0
10 220 0
10 230 0
10 240 0
10 250 0
10 260 0
10 270 0
10 280 0
10 290 0
10 300 0
10 310 0
10 320 0
10 330 0
10 340 0
10 350 0
10 360 0
10 370 0
10 380 0
10 390 0
10 400 0
10 410 0
10 420 0
10 430 0
10 440 0
10 450 0
10 460 0
10 470 0
10 480 0
10 490 0
10 500 0
10 510 0
10 520 0
10 530 0
10 540 0
10 550 0
10 560 0
10 570 0
10 580 0
10 590 0
10 600 0
10 610 0
10 620 0
10 630 0
10 640 0
10 650 0
10 660 0
10 670 0
10 680 0
10 690 0
10 700 0
10 710 0
10 720 0
10 730 0
10 740 0
10 750 0
10 760 0
10 770 0
10 780 0
10 790 0
10 800 0
10 810 0
10 820 0
10 830 0
10 840 0
10 850 0
10 860 0
10 870 0
10 880 0
10 890 0
10 900 0
10 910 0
10 920 0
10 930 0
10 940 0
10 950 0
10 960 0
10 970 0
10 980 0
10 990 0
10 1000 0
10 1010 0
10 1020 0
10 1030 0
10 1040 0
10 1050 0
10 1060 0
10 1070 0
10 1080 0
10 1090 0
10 1100 0
10 1110 0
10 1120 0
10 1130 0
10 1140 0
10 1150 0
10 1160 0
10 1170 0
10 1180 0
10 1190 0
10 1200 0
10 1210 0
10 1220 0
10 1230 0
10 1240 0
10 1250 0
10 1260 0
10 1270 0
10 1280 0
10 1290 0
10 1300 0
10 1310 0
10 1320 0
10 1330 0
10 1340 0
10 1350 0
10 1360 0
10 1370 0
10 1380 0
10 1390 0
10 1400 0
10 1410 0
10 1420 0
10 1430 0
10 1440 0
10 1450 0
10 1460 0
10 1470 0
10 1480 0
10 1490 0
10 1500 0
10 1510 0
10 1520 0
10 1530 0
10 1540 0
10 1550 0
10 1560 0
10 1570 0
10 1580 0
10 1590 0
10 1600 0
10 1610 0
10 1620 0
10 1630 0
10 1640 0
10 1650 0
10 1660 0
10 1670 0
10 1680 0
10 1690 0
10 1700 0
10 1710 0
10 1720 0
10 1730 0
10 1740 0
10 1750 0
10 1760 0
10 1770 0
10 1780 0
10 1790 0
10 1800 0
10 1810 0
10 1820 0
10 1830 0
10 1840 0
10 1850 0
10 1860 0
10 1870 0
10 1880 0
10 1890 0
10 1900 0
10 1910 0
10 1920 0
10 1930 0
10 1940 0
10 1950 0
10 1960 0
10 1970 0
10 1980 0
10 1990 0
10 2000 0
10 2010 0
10 2020 0
10 2030 0
10 2040 0
10 2050 0
10 2060 0
10 2070 0
10 2080 0
10 2090 0
10 2100 0
10 2110 0
10 2120 0
10 2130 0
10 2140 0
10 2150 0
10 2160 0
10 2170 0
10 2180 0
10 2190 0
10 2200 0
10 2210 0
10 2220 0
10 2230 0
10 2240 0
10 2250 0
10 2260 0
10 2270 0
10 2280 0
10 2290 0
10 2300 0
10 2310 0
10 2320 0
10 2330 0
10 2340 0
10 2350 0
10 2360 0
10 2370 0
10 2380 0
10 2390 0
10 2400 0
10 2410 0
10 2420 0
10 2430 0
10 2440 0
10 2450 0
10 2460 0
10 2470 0
10 2480 0
10 2490 0
10 2500 0
10 2510 0
10 2520 0
10 2530 0
10 2540 0
10 2550 0
10 2560 0
10 2570 0
10 2580 0
10 2590 0
10 2600 0
10 2610 0
10 2620 0
10 2630 0
10 2640 0
10 2650 0
10 2660 0
10 2670 0
10 2680 0
10 2690 0
10 2700 0
10 2710 0
10 2720 0
10 2730 0
10 2740 0
10 2750 0
10 2760 0
10 2770 0
10 2780 0
10 2790 0
10 2800 0
10 2810 0
10 2820 0
10 2830 0
10 2840 0
10 2850 0
10 2860 0
10 2870 0
10 2880 0
10 2890 0
10 2900 0
10 2910 0
10 2920 0
10 2930 0
10 2940 0
10 2950 0
10 2960 0
10 2970 0
10 2980 0
10 2990 0
10 3000 0
20 0 0
20 10 0
20 20 0
20 30 0
20 40 0
20 50 0
20 60 0
20 70 0
20 80 0
20 90 0
20 100 0
20 110 0
20 120 0
20 130 0
20 140 0
20 150 0
20 160 0
20 170 0
20 180 0
20 190 0
20 200 0
20 210 0
20 220 0
20 230 0
20 240 0
20 250 0
20 260 0
20 270 0
20 280 0
20 290 0
20 300 0
20 310 0
20 320 0
20 330 0
20 340 0
20 350 0
20 360 0
20 370 0
20 380 0
20 390 0
20 400 0
20 410 0
20 420 0
20 430 0
20 440 0
20 450 0
20 460 0
20 470 0
20 480 0
20 490 0
20 500 0
20 510 0
20 520 0
20 530 0
20 540 0
20 550 0
20 560 0
20 570 0
20 580 0
20 590 0
20 600 0
20 610 0
20 620 0
20 630 0
20 640 0
20 650 0
20 660 0
20 670 0
20 680 0
20 690 0
20 700 0
20 710 0
20 720 0
20 730 0
20 740 0
20 750 0
20 760 0
20 770 0
20 780 0
20 790 0
20 800 0
20 810 0
20 820 0
20 830 0
20 840 0
20 850 0
20 860 0
20 870 0
20 880 0
20 890 0
20 900 0
20 910 0
20 920 0
20 930 0
20 940 0
20 950 0
20 960 0
20 970 0
20 980 0
20 990 0
20 1000 0
20 1010 0
20 1020 0
20 1030 0
20 1040 0
20 1050 0
20 1060 0
20 1070 0
20 1080 0
20 1090 0
20 1100 0
20 1110 0
20 1120 0
20 1130 0
20 1140 0
20 1150 0
20 1160 0
20 1170 0
20 1180 0
20 1190 0
20 1200 0
20 1210 0
20 1220 0
20 1230 0
20 1240 0
20 1250 0
20 1260 0
20 1270 0
20 1280 0
20 1290 0
20 1300 0
20 1310 0
20 1320 0
20 1330 0
20 1340 0
20 1350 0
20 1360 0
20 1370 0
20 1380 0
20 1390 0
20 1400 0
20 1410 0
20 1420 0
20 1430 0
20 1440 0
20 1450 0
20 1460 0
20 1470 0
20 1480 0
20 1490 0
20 1500 0
20 1510 0
20 1520 0
20 1530 0
20 1540 0
20 1550 0
20 1560 0
20 1570 0
20 1580 0
20 1590 0
20 1600 0
20 1610 0
20 1620 0
20 1630 0
20 1640 0
20 1650 0
20 1660 0
20 1670 0
20 1680 0
20 1690 0
20 1700 0
20 1710 0
20 1720 0
20 1730 0
20 1740 0
20 1750 0
20 1760 0
20 1770 0
20 1780 0
20 1790 0
20 1800 0
20 1810 0
20 1820 0
20 1830 0
20 1840 0
20 1850 0
20 1860 0
20 1870 0
20 1880 0
20 1890 0
20 1900 0
20 1910 0
20 1920 0
20 1930 0
20 1940 0
20 1950 0
20 1960 0
20 1970 0
20 1980 0
20 1990 0
20 2000 0
20 2010 0
20 2020 0
20 2030 0
20 2040 0
20 2050 0
20 2060 0
20 2070 0
20 2080 0
20 2090 0
20 2100 0
20 2110 0
20 2120 0
20 2130 0
20 2140 0
20 2150 0
20 2160 0
20 2170 0
20 2180 0
20 2190 0
20 2200 0
20 2210 0
20 2220 0
20 2230 0
20 2240 0
20 2250 0
20 2260 0
20 2270 0
20 2280 0
20 2290 0
20 2300 0
20 2310 0
20 2320 0
20 2330 0
20 2340 0
20 2350 0
20 2360 0
20 2370 0
20 2380 0
20 2390 0
20 2400 0
20 2410 0
20 2420 0
20 2430 0
20 2440 0
20 2450 0
20 2460 0
20 2470 0
20 2480 0
20 2490 0
20 2500 0
20 2510 0
20 2520 0
20 2530 0
20 2540 0
20 2550 0
20 2560 0
20 2570 0
20 2580 0
20 2590 0
20 2600 0
20 2610 0
20 2620 0
20 2630 0
20 2640 0
20 2650 0
20 2660 0
20 2670 0
20 2680 0
20 2690 0
20 2700 0
20 2710 0
20 2720 0
20 2730 0
20 2740 0
20 2750 0
20 2760 0
20 2770 0
20 2780 0
20 2790 0
20 2800 0
20 2810 0
20 2820 0
20 2830 0
20 2840 0
20 2850 0
20 2860 0
20 2870 0
20 2880 0
20 2890 0
20 2900 0
20 2910 0
20 2920 0
20 2930 0
20 2940 0
20 2950 0
20 2960 0
20 2970 0
20 2980 0
20 2990 0
20 3000 0
30 0 0
30 10 0
30 20 0
30 30 0
30 40 0
30 50 0
30 60 0
30 70 0
30 80 0
30 90 0
30 100 0
30 110 0
30 120 0
30 130 0
30 140 0
30 150 0
30 160 0
30 170 0
30 180 0
30 190 0
30 200 0
30 210 0
30 220 0
30 230 0
30 240 0
30 250 0
30 260 0
30 270 0
30 280 0
30 290 0
30 300 0
30 310 0
30 320 0
30 330 0
30 340 0
30 350 0
30 360 0
30 370 0
30 380 0
30 390 0
30 400 0
30 410 0
30 420 0
30 430 0
30 440 0
30 450 0
30 460 0
30 470 0
30 480 0
30 490 0
30 500 0
30 510 0
30 520 0
30 530 0
30 540 0
30 550 0
30 560 0
30 570 0
30 580 0
30 590 0
30 600 0
30 610 0
30 620 0
30 630 0
30 640 0
30 650 0
30 660 0
30 670 0
30 680 0
30 690 0
30 700 0
30 710 0
30 720 0
30 730 0
30 740 0
30 750 0
30 760 0
30 770 0
30 780 0
30 790 0
30 800 0
30 810 0
30 820 0
30 830 0
30 840 0
30 850 0
30 860 0
30 870 0
30 880 0
30 890 0
30 900 0
30 910 0
30 920 0
30 930 0
30 940 0
30 950 0
30 960 0
30 970 0
30 980 0
30 990 0
30 1000 0
30 1010 0
30 1020 0
30 1030 0
30 1040 0
30 1050 0
30 1060 0
30 1070 0
30 1080 0
30 1090 0
30 1100 0
30 1110 0
30 1120 0
30 1130 0
30 1140 0
30 1150 0
30 1160 0
30 1170 0
30 1180 0
30 1190 0
30 1200 0
30 1210 0
30 1220 0
30 1230 0
30 1240 0
30 1250 0
30 1260 0
30 1270 0
30 1280 0
30 1290 0
30 1300 0
30 1310 0
30 1320 0
30 1330 0
30 1340 0
30 1350 0
30 1360 0
30 1370 0
30 1380 0
30 1390 0
30 1400 0
30 1410 0
30 1420 0
30 1430 0
30 1440 0
30 1450 0
30 1460 0
30 1470 0
30 1480 0
30 1490 0
30 1500 0
30 1510 0
30 1520 0
30 1530 0
30 1540 0
30 1550 0
30 1560 0
30 1570 0
30 1580 0
30 1590 0
[...]
POINT_DATA 90601
SCALARS P float
LOOKUP_TABLE default
95.3008
95.3008
95.3377
95.4258
95.5737
95.7804
96.0336
96.3122
96.5920
96.8499
97.0677
97.2329
97.3387
97.3830
97.3671
97.2943
97.1696
96.9983
96.7857
96.5370
96.2572
95.9504
95.6205
95.2709
94.9045
94.5238
94.1308
93.7275
93.3153
92.8957
92.4696
92.0380
91.6019
91.1617
90.7182
90.2718
89.8230
89.3720
88.9192
88.4648
88.0091
87.5523
87.0945
86.6358
86.1764
85.7164
85.2558
84.7948
84.3334
83.8716
83.4095
82.9471
82.4846
82.0218
81.5588
81.0957
80.6325
80.1692
79.7058
79.2423
78.7787
78.3150
77.8513
77.3876
76.9238
76.4599
75.9961
75.5322
75.0682
74.6043
74.1403
73.6764
73.2124
72.7484
72.2844
71.8203
71.3563
70.8923
70.4282
69.9642
69.5001
69.0360
68.5720
68.1079
67.6438
67.1798
66.7157
66.2516
65.7875
65.3234
64.8594
64.3953
63.9312
63.4671
63.0030
62.5389
62.0748
61.6108
61.1467
60.6826
60.2185
59.7544
59.2903
58.8262
58.3621
57.8980
57.4339
56.9698
56.5057
56.0416
55.5775
55.1134
54.6493
54.1852
53.7210
53.2569
52.7928
52.3287
51.8646
51.4004
50.9363
50.4722
50.0080
49.5439
49.0797
48.6155
48.1514
47.6872
47.2230
46.7588
46.2946
45.8304
45.3661
44.9019
44.4377
43.9734
43.5091
43.0448
42.5805
42.1162
41.6519
41.1875
40.7232
40.2588
39.7945
39.3301
38.8657
38.4013
37.9369
37.4726
37.0082
36.5438
36.0795
35.6152
35.1509
34.6867
34.2225
33.7584
33.2944
32.8305
32.3667
31.9031
31.4395
30.9762
30.5131
30.0502
29.5876
29.1253
28.6633
28.2017
27.7406
27.2799
26.8197
26.3601
25.9012
25.4429
24.9854
24.5288
24.0731
23.6183
23.1647
22.7122
22.2610
21.8112
21.3629
20.9161
20.4711
20.0279
19.5866
19.1474
18.7104
18.2758
17.8436
17.4141
16.9873
16.5635
16.1428
15.7254
15.3113
14.9009
14.4941
14.0913
13.6925
13.2980
12.9079
12.5223
12.1415
11.7655
11.3946
11.0289
10.6686
10.3138
9.9646
9.6213
9.2839
8.9525
8.6273
8.3085
7.9960
7.6900
7.3907
7.0980
6.8121
6.5331
6.2609
5.9956
5.7374
5.4861
5.2419
5.0046
4.7745
4.5513
4.3351
4.1259
3.9236
3.7283
3.5397
3.3578
3.1827
3.0141
2.8521
2.6964
2.5470
2.4038
2.2667
2.1355
2.0101
1.8904
1.7762
1.6673
1.5637
1.4652
1.3717
1.2829
1.1987
1.1190
1.0436
0.9724
0.9051
0.8417
0.7820
0.7258
0.6730
0.6234
0.5769
0.5333
0.4925
0.4544
0.4189
0.3857
0.3548
0.3260
0.2992
0.2744
0.2514
0.2301
0.2103
0.1921
0.1752
0.1597
0.1454
0.1322
0.1201
0.1090
0.0988
0.0895
0.0809
0.0731
0.0660
0.0595
0.0536
0.0483
0.0434
0.0390
0.0350
0.0314
0.0282
0.0253
0.0229
0.0211
0.0199
95.3008
95.3008
95.3377
95.4258
95.5737
95.7804
96.0336
96.3122
96.5920
96.8499
97.0677
97.2329
97.3387
97.3830
97.3671
97.2943
97.1696
96.9983
96.7857
96.5370
96.2572
95.9504
95.6205
95.2709
94.9045
94.5238
94.1308
93.7275
93.3153
92.8957
92.4696
92.0380
91.6019
91.1617
90.7182
90.2718
89.8230
89.3720
88.9192
88.4648
88.0091
87.5523
87.0945
86.6358
86.1764
85.7164
85.2558
84.7948
84.3334
83.8716
83.4095
82.9471
82.4846
82.0218
81.5588
81.0957
80.6325
80.1692
79.7058
79.2423
78.7787
78.3150
77.8513
77.3876
76.9238
76.4599
75.9961
75.5322
75.0682
74.6043
74.1403
73.6764
73.2124
72.7484
72.2844
71.8203
71.3563
70.8923
70.4282
69.9642
69.5001
69.0360
68.5720
68.1079
67.6438
67.1798
66.7157
66.2516
65.7875
65.3234
64.8594
64.3953
63.9312
63.4671
63.0030
62.5389
62.0748
61.6108
61.1467
60.6826
60.2185
59.7544
59.2903
58.8262
58.3621
57.8980
57.4339
56.9698
56.5057
56.0416
55.5775
55.1134
54.6493
54.1852
53.7210
53.2569
52.7928
52.3287
51.8646
51.4004
50.9363
50.4722
50.0080
49.5439
49.0797
48.6155
48.1514
47.6872
47.2230
46.7588
46.2946
45.8304
45.3661
44.9019
44.4377
43.9734
43.5091
43.0448
42.5805
42.1162
41.6519
41.1875
40.7232
40.2588
39.7945
39.3301
38.8657
38.4013
37.9369
37.4726
37.0082
36.5438
36.0795
35.6152
35.1509
34.6867
34.2225
33.7584
33.2944
32.8305
32.3667
31.9031
31.4395
30.9762
30.5131
30.0502
29.5876
29.1253
28.6633
28.2017
27.7406
27.2799
26.8197
26.3601
25.9012
25.4429
24.9854
24.5288
24.0731
23.6183
23.1647
22.7122
22.2610
21.8112
21.3629
20.9161
20.4711
20.0279
19.5866
19.1474
18.7104
18.2758
17.8436
17.4141
16.9873
16.5635
16.1428
15.7254
15.3113
14.9009
14.4941
14.0913
13.6925
13.2980
12.9079
12.5223
12.1415
11.7655
11.3946
11.0289
10.6686
10.3138
9.9646
9.6213
9.2839
8.9525
8.6273
8.3085
7.9960
7.6900
7.3907
7.0980
6.8121
6.5331
6.2609
5.9956
5.7374
5.4861
5.2419
5.0046
4.7745
4.5513
4.3351
4.1259
3.9236
3.7283
3.5397
3.3578
3.1827
3.0141
2.8521
2.6964
2.5470
2.4038
2.2667
2.1355
2.0101
1.8904
1.7762
1.6673
1.5637
1.4652
1.3717
1.2829
1.1987
1.1190
1.0436
0.9724
0.9051
0.8417
0.7820
0.7258
0.6730
0.6234
0.5769
0.5333
0.4925
0.4544
0.4189
0.3857
0.3548
0.3260
0.2992
0.2744
0.2514
0.2301
0.2103
0.1921
0.1752
0.1597
0.1454
0.1322
0.1201
0.1090
0.0988
0.0895
0.0809
0.0731
0.0660
0.0595
0.0536
0.0483
0.0434
0.0390
0.0350
0.0314
0.0282
0.0253
0.0229
0.0211
0.0199
95.5920
95.5920
95.6408
95.7564
95.9477
96.2084
96.5152
96.8363
97.1398
97.4006
97.6024
97.7373
97.8032
97.8028
97.7407
97.6231
97.4562
97.2465
96.9995
96.7206
96.4143
96.0847
95.7352
95.3687
94.9879
94.5949
94.1915
93.7793
93.3596
92.9335
92.5019
92.0657
91.6256
91.1821
90.7357
90.2868
89.8358
89.3830
88.9287
88.4730
88.0162
87.5584
87.0998
86.6404
86.1804
85.7198
85.2588
84.7974
84.3356
83.8735
83.4112
82.9486
82.4858
82.0229
81.5598
81.0966
80.6333
80.1698
79.7063
79.2427
78.7791
78.3154
77.8516
77.3878
76.9240
76.4601
75.9962
75.5323
75.0684
74.6044
74.1404
73.6765
73.2125
72.7484
72.2844
71.8204
71.3564
70.8923
70.4283
69.9642
69.5001
69.0361
68.5720
68.1079
67.6439
67.1798
66.7157
66.2516
65.7875
65.3235
64.8594
64.3953
63.9312
63.4671
63.0030
62.5389
62.0748
61.6108
61.1467
60.6826
60.2185
59.7544
59.2903
58.8262
58.3621
57.8980
57.4339
56.9698
56.5057
56.0416
55.5775
55.1134
54.6493
54.1852
53.7210
53.2569
52.7928
52.3287
51.8646
51.4004
50.9363
50.4722
50.0080
49.5439
49.0797
48.6155
48.1514
47.6872
47.2230
46.7588
46.2946
45.8304
45.3661
44.9019
44.4377
43.9734
43.5091
43.0448
42.5805
42.1162
41.6519
41.1875
40.7232
40.2588
39.7945
39.3301
38.8657
38.4013
37.9369
37.4726
37.0082
36.5438
36.0795
35.6152
35.1509
34.6867
34.2225
33.7584
33.2944
32.8305
32.3667
31.9031
31.4395
30.9762
30.5131
30.0502
29.5876
29.1253
28.6633
28.2017
27.7406
27.2799
26.8197
26.3601
25.9012
25.4429
24.9854
24.5288
24.0731
23.6183
23.1647
22.7122
22.2610
21.8112
21.3629
20.9161
20.4711
20.0279
19.5866
19.1474
18.7104
18.2758
17.8436
17.4141
16.9873
16.5635
16.1428
15.7254
15.3113
14.9009
14.4941
14.0913
13.6925
13.2980
12.9079
12.5223
12.1415
11.7655
11.3946
11.0289
10.6686
10.3138
9.9646
9.6213
9.2839
8.9525
8.6273
8.3085
7.9960
7.6900
7.3907
7.0980
6.8121
6.5331
6.2609
5.9956
5.7374
5.4861
5.2419
5.0046
4.7745
4.5513
4.3351
4.1259
3.9236
3.7283
3.5397
3.3578
3.1827
3.0141
2.8521
2.6964
2.5470
2.4038
2.2667
2.1355
2.0101
1.8904
1.7762
1.6673
1.5637
1.4652
1.3717
1.2829
1.1987
1.1190
1.0436
0.9724
0.9051
0.8417
0.7820
0.7258
0.6730
0.6234
0.5769
0.5333
0.4925
0.4544
0.4189
0.3857
0.3548
0.3260
0.2992
0.2744
0.2514
0.2301
0.2103
0.1921
0.1752
0.1597
0.1454
0.1322
0.1201
0.1090
0.0988
0.0895
0.0809
0.0731
0.0660
0.0595
0.0536
0.0483
0.0434
0.0390
0.0350
0.0314
0.0282
0.0253
0.0229
0.0211
0.0199
96.3686
96.3686
96.4540
96.6548
96.9805
97.4051
97.8684
98.3037
98.6604
98.9122
99.0533
99.0906
99.0375
98.9087
98.7184
98.4784
98.1987
97.8872
97.5501
97.1923
96.8176
96.4289
96.0288
95.6191
95.2014
94.7770
94.3468
93.9119
93.4728
93.0303
92.5847
92.1366
91.6864
91.2342
90.7804
90.3253
89.8689
89.4115
88.9532
88.4942
88.0344
87.5742
87.1134
86.6521
86.1905
85.7286
85.2664
84.8040
84.3413
83.8785
83.4155
82.9524
82.4891
82.0257
81.5623
81.0987
80.6351
80.1715
79.7078
79.2440
78.7802
78.3163
77.8525
77.3886
76.9246
76.4607
75.9967
75.5327
75.0688
74.6048
74.1407
73.6767
73.2127
72.7486
72.2846
71.8205
71.3565
70.8924
70.4284
69.9643
69.5002
69.0361
68.5721
68.1080
67.6439
67.1798
66.7157
66.2517
65.7876
65.3235
64.8594
64.3953
63.9312
63.4671
63.0030
62.5389
62.0749
61.6108
61.1467
60.6826
60.2185
59.7544
59.2903
58.8262
58.3621
57.8980
57.4339
56.9698
56.5057
56.0416
55.5775
55.1134
54.6493
54.1852
53.7210
53.2569
52.7928
52.3287
51.8646
51.4004
50.9363
50.4722
50.0080
49.5439
49.0797
48.6155
48.1514
47.6872
47.2230
46.7588
46.2946
45.8304
45.3661
44.9019
44.4377
43.9734
43.5091
43.0448
42.5805
42.1162
41.6519
41.1875
40.7232
40.2588
39.7945
39.3301
38.8657
38.4013
37.9369
37.4726
37.0082
36.5438
36.0795
35.6152
35.1509
34.6867
34.2225
33.7584
33.2944
32.8305
32.3667
31.9031
31.4395
30.9762
30.5131
30.0502
29.5876
29.1253
28.6633
28.2017
27.7406
27.2799
26.8197
26.3601
25.9012
25.4429
24.9854
24.5288
24.0731
23.6183
23.1647
22.7122
22.2610
21.8112
21.3629
20.9161
20.4711
20.0279
19.5866
19.1474
18.7104
18.2758
17.8436
17.4141
16.9873
16.5635
16.1428
15.7254
15.3113
14.9009
14.4941
14.0913
13.6925
13.2980
12.9079
12.5223
12.1415
11.7655
11.3946
11.0289
10.6686
10.3138
9.9646
9.6213
9.2839
8.9525
8.6273
8.3085
7.9960
7.6900
7.3907
7.0980
6.8121
6.5331
6.2609
5.9956
5.7374
5.4861
5.2419
5.0046
4.7745
4.5513
4.3351
4.1259
3.9236
3.7283
3.5397
3.3578
3.1827
3.0141
2.8521
2.6964
2.5470
2.4038
2.2667
2.1355
2.0101
1.8904
1.7762
1.6673
1.5637
1.4652
1.3717
1.2829
1.1987
1.1190
1.0436
0.9724
0.9051
0.8417
0.7820
0.7258
0.6730
0.6234
0.5769
0.5333
0.4925
0.4544
0.4189
0.3857
0.3548
0.3260
0.2992
0.2744
0.2514
0.2301
0.2103
0.1921
0.1752
0.1597
0.1454
0.1322
0.1201
0.1090
0.0988
0.0895
0.0809
0.0731
0.0660
0.0595
0.0536
0.0483
0.0434
0.0390
0.0350
0.0314
0.0282
0.0253
0.0229
0.0211
0.0199
97.9371
97.9371
98.1154
98.5339
99.2031
100.0375
100.8624
101.5231
101.9414
102.1097
102.0616
101.8460
101.5107
101.0955
100.6305
100.1367
99.6284
99.1146
98.6006
98.0896
97.5831
97.0815
96.5849
96.0930
95.6054
95.1215
94.6409
94.1630
93.6874
93.2138
92.7418
92.2712
91.8018
91.3333
90.8655
90.3984
89.9318
89.4657
88.9999
88.5345
88.0692
87.6042
87.1393
86.6746
86.2100
85.7455
85.2810
84.8167
84.3523
83.8881
83.4238
82.9596
82.4954
82.0312
81.5670
81.1029
80.6388
80.1746
79.7105
79.2464
78.7823
78.3182
77.8541
77.3900
76.9259
76.4618
75.9977
75.5336
75.0695
74.6054
74.1413
73.6772
73.2131
72.7490
72.2849
71.8208
71.3567
70.8926
70.4285
69.9645
69.5004
69.0363
68.5722
68.1081
67.6440
67.1799
66.7158
66.2517
65.7876
65.3235
64.8594
64.3953
63.9313
63.4672
63.0031
62.5390
62.0749
61.6108
61.1467
60.6826
60.2185
59.7544
59.2903
58.8262
58.3621
57.8980
57.4339
56.9698
56.5057
56.0416
55.5775
55.1134
54.6493
54.1852
53.7210
53.2569
52.7928
52.3287
51.8646
51.4004
50.9363
50.4722
50.0080
49.5439
49.0797
48.6155
48.1514
47.6872
47.2230
46.7588
46.2946
45.8304
45.3661
44.9019
44.4377
43.9734
43.5091
43.0448
42.5805
42.1162
41.6519
41.1875
40.7232
40.2588
39.7945
39.3301
38.8657
38.4013
37.9369
37.4726
37.0082
36.5438
36.0795
35.6152
35.1509
34.6867
34.2225
33.7584
33.2944
32.8305
32.3667
31.9031
31.4395
30.9762
30.5131
30.0502
29.5876
29.1253
28.6633
28.2017
27.7406
27.2799
26.8197
26.3601
25.9012
25.4429
24.9854
24.5288
24.0731
23.6183
23.1647
22.7122
22.2610
21.8112
21.3629
20.9161
20.4711
20.0279
19.5866
19.1474
18.7104
18.2758
17.8436
17.4141
16.9873
16.5635
16.1428
15.7254
15.3113
14.9009
14.4941
14.0913
13.6925
13.2980
12.9079
12.5223
12.1415
11.7655
11.3946
11.0289
10.6686
10.3138
9.9646
9.6213
9.2839
8.9525
8.6273
8.3085
7.9960
7.6900
7.3907
7.0980
6.8121
6.5331
6.2609
5.9956
5.7374
5.4861
5.2419
5.0046
4.7745
4.5513
4.3351
4.1259
3.9236
3.7283
3.5397
3.3578
3.1827
3.0141
2.8521
2.6964
2.5470
2.4038
2.2667
2.1355
2.0101
1.8904
1.7762
1.6673
1.5637
1.4652
1.3717
1.2829
1.1987
1.1190
1.0436
0.9724
0.9051
0.8417
0.7820
0.7258
0.6730
0.6234
0.5769
0.5333
0.4925
0.4544
0.4189
0.3857
0.3548
0.3260
0.2992
0.2744
0.2514
0.2301
0.2103
0.1921
0.1752
0.1597
0.1454
0.1322
0.1201
0.1090
0.0988
0.0895
0.0809
0.0731
0.0660
0.0595
0.0536
0.0483
0.0434
0.0390
0.0350
0.0314
0.0282
0.0253
0.0229
0.0211
0.0199
100.7644
100.7644
101.1658
102.1152
103.6333
105.4591
107.0492
108.0569
108.4166
108.2316
107.6588
106.8450
105.9037
104.9131
103.9227
102.9613
102.0434
101.1747
100.3558
99.5838
98.8548
98.1639
97.5066
96.8782
96.2747
95.6925
95.1283
94.5795
94.0436
93.5187
93.0031
92.4952
91.9940
91.4984
91.0075
90.5206
90.0371
89.5564
89.0782
88.6020
88.1276
87.6547
87.1830
86.7124
86.2428
85.7739
85.3057
84.8381
84.3709
83.9042
83.4378
82.9718
82.5060
82.0405
81.5751
81.1099
80.6449
80.1800
79.7152
79.2505
78.7858
78.3213
77.8568
77.3923
76.9279
76.4636
75.9993
75.5350
75.0707
74.6065
74.1422
73.6780
73.2138
72.7496
72.2855
71.8213
71.3572
70.8930
70.4289
69.9647
69.5006
69.0365
68.5724
68.1083
67.6441
67.1800
66.7159
66.2518
65.7877
65.3236
64.8595
64.3954
63.9313
63.4672
63.0031
62.5390
62.0749
61.6108
61.1467
60.6826
60.2185
59.7544
59.2903
58.8262
58.3621
57.8980
57.4339
56.9698
56.5057
56.0416
55.5775
55.1134
54.6493
54.1852
53.7211
53.2569
52.7928
52.3287
51.8646
51.4004
50.9363
50.4722
50.0080
49.5439
49.0797
48.6155
48.1514
47.6872
47.2230
46.7588
46.2946
45.8304
45.3661
44.9019
44.4377
43.9734
43.5091
43.0448
42.5805
42.1162
41.6519
41.1875
40.7232
40.2588
39.7945
39.3301
38.8657
38.4013
37.9369
37.4726
37.0082
36.5438
36.0795
35.6152
35.1509
34.6867
34.2225
33.7584
33.2944
32.8305
32.3667
31.9031
31.4395
30.9762
30.5131
30.0502
29.5876
29.1253
28.6633
28.2017
27.7406
27.2799
26.8197
26.3601
25.9012
25.4429
24.9854
24.5288
24.0731
23.6183
23.1647
22.7122
22.2610
21.8112
21.3629
20.9161
20.4711
20.0279
19.5866
19.1474
18.7104
18.2758
17.8436
17.4141
16.9873
16.5635
16.1428
15.7254
15.3113
14.9009
14.4941
14.0913
13.6925
13.2980
12.9079
12.5223
12.1415
11.7655
11.3946
11.0289
10.6686
10.3138
9.9646
9.6213
9.2839
8.9525
8.6273
8.3085
7.9960
7.6900
7.3907
7.0980
6.8121
6.5331
6.2609
5.9956
5.7374
5.4861
5.2419
5.0046
4.7745
4.5513
4.3351
4.1259
3.9236
3.7283
3.5397
3.3578
3.1827
3.0141
2.8521
2.6964
2.5470
2.4038
2.2667
2.1355
2.0101
1.8904
1.7762
1.6673
1.5637
1.4652
1.3717
1.2829
1.1987
1.1190
1.0436
0.9724
0.9051
0.8417
0.7820
0.7258
0.6730
0.6234
0.5769
0.5333
0.4925
0.4544
0.4189
0.3857
0.3548
0.3260
0.2992
0.2744
0.2514
0.2301
0.2103
0.1921
0.1752
0.1597
0.1454
0.1322
0.1201
0.1090
0.0988
0.0895
0.0809
0.0731
0.0660
0.0595
0.0536
0.0483
0.0434
0.0390
0.0350
0.0314
0.0282
0.0253
0.0229
0.0211
0.0199
105.5177
105.5177
106.4371
108.6595
112.2901
116.5693
119.6457
120.8992
120.5978
119.2675
117.3779
115.2591
113.1148
111.0575
109.1419
107.3879
105.7958
104.3559
103.0540
101.8739
100.8001
99.8180
98.9143
98.0774
97.2974
96.5655
95.8743
95.2176
94.5899
93.9869
93.4047
92.8401
92.2905
91.7534
91.2270
90.7098
90.2002
89.6972
89.1998
88.7071
88.2185
87.7333
87.2511
86.7715
86.2940
85.8183
85.3443
84.8716
84.4000
83.9295
83.4599
82.9910
82.5227
82.0550
81.5878
81.1210
80.6546
80.1884
79.7225
79.2569
78.7915
78.3262
77.8611
77.3961
76.9312
76.4665
76.0018
75.5372
75.0726
74.6082
74.1437
73.6793
73.2150
72.7507
72.2864
71.8221
71.3578
70.8936
70.4294
69.9652
69.5010
69.0369
68.5727
68.1085
67.6444
67.1803
66.7161
66.2520
65.7879
65.3237
64.8596
64.3955
63.9314
63.4673
63.0032
62.5391
62.0750
61.6109
61.1468
60.6827
60.2185
59.7544
59.2903
58.8262
58.3621
57.8980
57.4339
56.9698
56.5057
56.0416
55.5775
55.1134
54.6493
54.1852
53.7211
53.2569
52.7928
52.3287
51.8646
51.4004
50.9363
50.4722
50.0080
49.5439
49.0797
48.6155
48.1514
47.6872
47.2230
46.7588
46.2946
45.8304
45.3661
44.9019
44.4377
43.9734
43.5091
43.0448
42.5805
42.1162
41.6519
41.1875
40.7232
40.2588
39.7945
39.3301
38.8657
38.4013
37.9369
37.4726
37.0082
36.5438
36.0795
35.6152
35.1509
34.6867
34.2225
33.7584
33.2944
32.8305
32.3667
31.9031
31.4395
30.9762
30.5131
30.0502
29.5876
29.1253
28.6633
28.2017
27.7406
27.2799
26.8197
26.3601
25.9012
25.4429
24.9854
24.5288
24.0731
23.6183
23.1647
22.7122
22.2610
21.8112
21.3629
20.9161
20.4711
20.0279
19.5866
19.1474
18.7104
18.2758
17.8436
17.4141
16.9873
16.5635
16.1428
15.7254
15.3113
14.9009
14.4941
14.0913
13.6925
13.2980
12.9079
12.5223
12.1415
11.7655
11.3946
11.0289
10.6686
10.3138
9.9646
9.6213
9.2839
8.9525
8.6273
8.3085
7.9960
7.6900
7.3907
7.0980
6.8121
6.5331
6.2609
5.9956
5.7374
5.4861
5.2419
5.0046
4.7745
4.5513
4.3351
4.1259
3.9236
3.7283
3.5397
3.3578
3.1827
3.0141
2.8521
2.6964
2.5470
2.4038
2.2667
2.1355
2.0101
1.8904
1.7762
1.6673
1.5637
1.4652
1.3717
1.2829
1.1987
1.1190
1.0436
0.9724
0.9051
0.8417
0.7820
0.7258
0.6730
0.6234
0.5769
0.5333
0.4925
0.4544
0.4189
0.3857
0.3548
0.3260
0.2992
0.2744
0.2514
0.2301
0.2103
0.1921
0.1752
0.1597
0.1454
0.1322
0.1201
0.1090
0.0988
0.0895
0.0809
0.0731
0.0660
0.0595
0.0536
0.0483
0.0434
0.0390
0.0350
0.0314
0.0282
0.0253
0.0229
0.0211
0.0199
113.0410
113.0410
115.1109
120.3228
129.3150
140.0923
145.4757
145.5919
142.5362
138.0537
133.1905
128.4786
124.1497
120.2785
116.8637
113.8704
111.2517
108.9588
106.9456
105.1709
103.5983
102.1968
100.9396
99.8043
98.7717
97.8257
96.9528
96.1416
95.3824
94.6672
93.9893
93.3430
92.7233
92.1263
91.5486
90.9873
90.4399
89.9044
89.3790
88.8622
88.3528
87.8498
87.3521
86.8591
86.3700
85.8844
85.4017
84.9215
84.4435
83.9674
83.4929
83.0197
82.5478
82.0769
81.6069
81.1377
80.6691
80.2011
79.7336
79.2666
78.8000
78.3336
77.8676
77.4018
76.9362
76.4708
76.0056
75.5405
75.0756
74.6107
74.1460
73.6813
73.2167
72.7522
72.2877
71.8233
71.3589
70.8945
70.4302
69.9659
69.5017
69.0374
68.5732
68.1090
67.6448
67.1806
66.7164
66.2522
65.7881
65.3239
64.8598
64.3957
63.9315
63.4674
63.0033
62.5392
62.0750
61.6109
61.1468
60.6827
60.2186
59.7545
59.2904
58.8263
58.3622
57.8981
57.4340
56.9698
56.5057
56.0416
55.5775
55.1134
54.6493
54.1852
53.7211
53.2569
52.7928
52.3287
51.8646
51.4004
50.9363
50.4722
50.0080
49.5439
49.0797
48.6155
48.1514
47.6872
47.2230
46.7588
46.2946
45.8304
45.3661
44.9019
44.4377
43.9734
43.5091
43.0448
42.5805
42.1162
41.6519
41.1875
40.7232
40.2588
39.7945
39.3301
38.8657
38.4013
37.9369
37.4726
37.0082
36.5438
36.0795
35.6152
35.1509
34.6867
34.2225
33.7584
33.2944
32.8305
32.3667
31.9031
31.4395
30.9762
30.5131
30.0502
29.5876
29.1253
28.6633
28.2017
27.7406
27.2799
26.8197
26.3601
25.9012
25.4429
24.9854
24.5288
24.0731
23.6183
23.1647
22.7122
22.2610
21.8112
21.3629
20.9161
20.4711
20.0279
19.5866
19.1474
18.7104
18.2758
17.8436
17.4141
16.9873
16.5635
16.1428
15.7254
15.3113
14.9009
14.4941
14.0913
13.6925
13.2980
12.9079
12.5223
12.1415
11.7655
11.3946
11.0289
10.6686
10.3138
9.9646
9.6213
9.2839
8.9525
8.6273
8.3085
7.9960
7.6900
7.3907
7.0980
6.8121
6.5331
6.2609
5.9956
5.7374
5.4861
5.2419
5.0046
4.7745
4.5513
4.3351
4.1259
3.9236
3.7283
3.5397
3.3578
3.1827
3.0141
2.8521
2.6964
2.5470
2.4038
2.2667
2.1355
2.0101
1.8904
1.7762
1.6673
1.5637
1.4652
1.3717
1.2829
1.1987
1.1190
1.0436
0.9724
0.9051
0.8417
0.7820
0.7258
0.6730
0.6234
0.5769
0.5333
0.4925
0.4544
0.4189
0.3857
0.3548
0.3260
0.2992
0.2744
0.2514
0.2301
0.2103
0.1921
0.1752
0.1597
0.1454
0.1322
0.1201
0.1090
0.0988
0.0895
0.0809
0.0731
0.0660
0.0595
0.0536
0.0483
0.0434
0.0390
0.0350
0.0314
0.0282
0.0253
0.0229
0.0211
0.0199
124.1422
124.1422
128.5679
140.4667
163.2796
193.5916
198.9721
191.3272
179.5817
167.6629
156.9225
147.6590
139.7970
133.1542
127.5375
122.7738
118.7163
115.2434
112.2554
109.6701
107.4203
105.4504
103.7146
102.1750
100.7999
99.5633
98.4432
97.4213
96.4825
95.6138
94.8046
94.0457
93.3296
92.6498
92.0009
91.3784
90.7783
90.1974
89.6329
89.0823
88.5438
88.0155
87.4961
86.9842
86.4788
85.9791
85.4841
84.9933
84.5060
84.0219
83.5404
83.0612
82.5840
82.1085
81.6345
81.1618
80.6902
80.2196
79.7498
79.2807
78.8123
78.3445
77.8771
77.4101
76.9435
76.4772
76.0112
75.5455
75.0799
74.6145
74.1493
73.6842
73.2193
72.7544
72.2897
71.8250
71.3604
70.8959
70.4314
69.9670
69.5026
69.0382
68.5739
68.1096
67.6453
67.1811
66.7168
66.2526
65.7884
65.3242
64.8601
64.3959
63.9317
63.4676
63.0034
62.5393
62.0752
61.6110
61.1469
60.6828
60.2187
59.7546
59.2904
58.8263
58.3622
57.8981
57.4340
56.9699
56.5058
56.0417
55.5775
55.1134
54.6493
54.1852
53.7211
53.2570
52.7928
52.3287
51.8646
51.4004
50.9363
50.4722
50.0080
49.5439
49.0797
48.6155
48.1514
47.6872
47.2230
46.7588
46.2946
45.8304
45.3661
44.9019
44.4377
43.9734
43.5091
43.0448
42.5805
42.1162
41.6519
41.1875
40.7232
40.2588
39.7945
39.3301
38.8657
38.4013
37.9369
37.4726
37.0082
36.5438
36.0795
35.6152
35.1509
34.6867
34.2225
33.7584
33.2944
32.8305
32.3667