# vtk DataFile Version 5.0
Example 3D regular grid VTK file.
ASCII
DATASET UNSTRUCTURED_GRID
POINTS 90601 float
0 0 0
0 10 0
0 20 0
0 30 0
0 40 0
0 50 0
0 60 0
0 70 0
0 80 0
0 90 0
0 100 0
0 110 0
0 120 0
0 130 0
0 140 0
0 150 0
0 160 0
0 170 0
0 180 0
0 190 0
0 200 0
0 210 0
0 220 0
0 230 0
0 240 0
0 250 0
0 260 0
0 270 0
0 280 0
0 290 0
0 300 0
0 310 0
0 320 0
0 330 0
0 340 0
0 350 0
0 360 0
0 370 0
0 380 0
0 390 0
0 400 0
0 410 0
0 420 0
0 430 0
0 440 0
0 450 0
0 460 0
0 470 0
0 480 0
0 490 0
0 500 0
0 510 0
0 520 0
0 530 0
0 540 0
0 550 0
0 560 0
0 570 0
0 580 0
0 590 0
0 600 0
0 610 0
0 620 0
0 630 0
0 640 0
0 650 0
0 660 0
0 670 0
0 680 0
0 690 0
0 700 0
0 710 0
0 720 0
0 730 0
0 740 0
0 750 0
0 760 0
0 770 0
0 780 0
0 790 0
0 800 0
0 810 0
0 820 0
0 830 0
0 840 0
0 850 0
0 860 0
0 870 0
0 880 0
0 890 0
0 900 0
0 910 0
0 920 0
0 930 0
0 940 0
0 950 0
0 960 0
0 970 0
0 980 0
0 990 0
0 1000 0
0 1010 0
0 1020 0
0 1030 0
0 1040 0
0 1050 0
0 1060 0
0 1070 0
0 1080 0
0 1090 0
0 1100 0
0 1110 0
0 1120 0
0 1130 0
0 1140 0
0 1150 0
0 1160 0
0 1170 0
0 1180 0
0 1190 0
0 1200 0
0 1210 0
0 1220 0
0 1230 0
0 1240 0
0 1250 0
0 1260 0
0 1270 0
0 1280 0
0 1290 0
0 1300 0
0 1310 0
0 1320 0
0 1330 0
0 1340 0
0 1350 0
0 1360 0
0 1370 0
0 1380 0
0 1390 0
0 1400 0
0 1410 0
0 1420 0
0 1430 0
0 1440 0
0 1450 0
0 1460 0
0 1470 0
0 1480 0
0 1490 0
0 1500 0
0 1510 0
0 1520 0
0 1530 0
0 1540 0
0 1550 0
0 1560 0
0 1570 0
0 1580 0
0 1590 0
0 1600 0
0 1610 0
0 1620 0
0 1630 0
0 1640 0
0 1650 0
0 1660 0
0 1670 0
0 1680 0
0 1690 0
0 1700 0
0 1710 0
0 1720 0
0 1730 0
0 1740 0
0 1750 0
0 1760 0
0 1770 0
0 1780 0
0 1790 0
0 1800 0
0 1810 0
0 1820 0
0 1830 0
0 1840 0
0 1850 0
0 1860 0
0 1870 0
0 1880 0
0 1890 0
0 1900 0
0 1910 0
0 1920 0
0 1930 0
0 1940 0
0 1950 0
0 1960 0
0 1970 0
0 1980 0
0 1990 0
0 2000 0
0 2010 0
0 2020 0
0 2030 0
0 2040 0
0 2050 0
0 2060 0
0 2070 0
0 2080 0
0 2090 0
0 2100 0
0 2110 0
0 2120 0
0 2130 0
0 2140 0
0 2150 0
0 2160 0
0 2170 0
0 2180 0
0 2190 0
0 2200 0
0 2210 0
0 2220 0
0 2230 0
0 2240 0
0 2250 0
0 2260 0
0 2270 0
0 2280 0
0 2290 0
0 2300 0
0 2310 0
0 2320 0
0 2330 0
0 2340 0
0 2350 0
0 2360 0
0 2370 0
0 2380 0
0 2390 0
0 2400 0
0 2410 0
0 2420 0
0 2430 0
0 2440 0
0 2450 0
0 2460 0
0 2470 0
0 2480 0
0 2490 0
0 2500 0
0 2510 0
0 2520 0
0 2530 0
0 2540 0
0 2550 0
0 2560 0
0 2570 0
0 2580 0
0 2590 0
0 2600 0
0 2610 0
0 2620 0
0 2630 0
0 2640 0
0 2650 0
0 2660 0
0 2670 0
0 2680 0
0 2690 0
0 2700 0
0 2710 0
0 2720 0
0 2730 0
0 2740 0
0 2750 0
0 2760 0
0 2770 0
0 2780 0
0 2790 0
0 2800 0
0 2810 0
0 2820 0
0 2830 0
0 2840 0
0 2850 0
0 2860 0
0 2870 0
0 2880 0
0 2890 0
0 2900 0
0 2910 0
0 2920 0
0 2930 0
0 2940 0
0 2950 0
0 2960 0
0 2970 0
0 2980 0
0 2990 0
0 3000 0
10 0 0
10 10 0
10 20 0
10 30 0
10 40 0
10 50 0
10 60 0
10 70 0
10 80 0
10 90 0
10 100 0
10 110 0
10 120 0
10 130 0
10 140 0
10 150 0
10 160 0
10 170 0
10 180 0
10 190 0
10 200 0
10 210 0
10 220 0
10 230 0
10 240 0
10 250 0
10 260 0
10 270 0
10 280 0
10 290 0
10 300 0
10 310 0
10 320 0
10 330 0
10 340 0
10 350 0
10 360 0
10 370 0
10 380 0
10 390 0
10 400 0
10 410 0
10 420 0
10 430 0
10 440 0
10 450 0
10 460 0
10 470 0
10 480 0
10 490 0
10 500 0
10 510 0
10 520 0
10 530 0
10 540 0
10 550 0
10 560 0
10 570 0
10 580 0
10 590 0
10 600 0
10 610 0
10 620 0
10 630 0
10 640 0
10 650 0
10 660 0
10 670 0
10 680 0
10 690 0
10 700 0
10 710 0
10 720 0
10 730 0
10 740 0
10 750 0
10 760 0
10 770 0
10 780 0
10 790 0
10 800 0
10 810 0
10 820 0
10 830 0
10 840 0
10 850 0
10 860 0
10 870 0
10 880 0
10 890 0
10 900 0
10 910 0
10 920 0
10 930 0
10 940 0
10 950 0
10 960 0
10 970 0
10 980 0
10 990 0
10 1000 0
10 1010 0
10 1020 0
10 1030 0
10 1040 0
10 1050 0
10 1060 0
10 1070 0
10 1080 0
10 1090 0
10 1100 0
10 1110 0
10 1120 0
10 1130 0
10 1140 0
10 1150 0
10 1160 0
10 1170 0
10 1180 0
10 1190 0
10 1200 0
10 1210 0
10 1220 0
10 1230 0
10 1240 0
10 1250 0
10 1260 0
10 1270 0
10 1280 0
10 1290 0
10 1300 0
10 1310 0
10 1320 0
10 1330 0
10 1340 0
10 1350 0
10 1360 0
10 1370 0
10 1380 0
10 1390 0
10 1400 0
10 1410 0
10 1420 0
10 1430 0
10 1440 0
10 1450 0
10 1460 0
10 1470 0
10 1480 0
10 1490 0
10 1500 0
10 1510 0
10 1520 0
10 1530 0
10 1540 0
10 1550 0
10 1560 0
10 1570 0
10 1580 0
10 1590 0
10 1600 0
10 1610 0
10 1620 0
10 1630 0
10 1640 0
10 1650 0
10 1660 0
10 1670 0
10 1680 0
10 1690 0
10 1700 0
10 1710 0
10 1720 0
10 1730 0
10 1740 0
10 1750 0
10 1760 0
10 1770 0
10 1780 0
10 1790 0
10 1800 0
10 1810 0
10 1820 0
10 1830 0
10 1840 0
10 1850 0
10 1860 0
10 1870 0
10 1880 0
10 1890 0
10 1900 0
10 1910 0
10 1920 0
10 1930 0
10 1940 0
10 1950 0
10 1960 0
10 1970 0
10 1980 0
10 1990 0
10 2000 0
10 2010 0
10 2020 0
10 2030 0
10 2040 0
10 2050 0
10 2060 0
10 2070 0
10 2080 0
10 2090 0
10 2100 0
10 2110 0
10 2120 0
10 2130 0
10 2140 0
10 2150 0
10 2160 0
10 2170 0
10 2180 0
10 2190 0
10 2200 0
10 2210 0
10 2220 0
10 2230 0
10 2240 0
10 2250 0
10 2260 0
10 2270 0
10 2280 0
10 2290 0
10 2300 0
10 2310 0
10 2320 0
10 2330 0
10 2340 0
10 2350 0
10 2360 0
10 2370 0
10 2380 0
10 2390 0
10 2400 0
10 2410 0
10 2420 0
10 2430 0
10 2440 0
10 2450 0
10 2460 0
10 2470 0
10 2480 0
10 2490 0
10 2500 0
10 2510 0
10 2520 0
10 2530 0
10 2540 0
10 2550 0
10 2560 0
10 2570 0
10 2580 0
10 2590 0
10 2600 0
10 2610 0
10 2620 0
10 2630 0
10 2640 0
10 2650 0
10 2660 0
10 2670 0
10 2680 0
10 2690 0
10 2700 0
10 2710 0
10 2720 0
10 2730 0
10 2740 0
10 2750 0
10 2760 0
10 2770 0
10 2780 0
10 2790 0
10 2800 0
10 2810 0
10 2820 0
10 2830 0
10 2840 0
10 2850 0
10 2860 0
10 2870 0
10 2880 0
10 2890 0
10 2900 0
10 2910 0
10 2920 0
10 2930 0
10 2940 0
10 2950 0
10 2960 0
10 2970 0
10 2980 0
10 2990 0
10 3000 0
20 0 0
20 10 0
20 20 0
20 30 0
20 40 0
20 50 0
20 60 0
20 70 0
20 80 0
20 90 0
20 100 0
20 110 0
20 120 0
20 130 0
20 140 0
20 150 0
20 160 0
20 170 0
20 180 0
20 190 0
20 200 0
20 210 0
20 220 0
20 230 0
20 240 0
20 250 0
20 260 0
20 270 0
20 280 0
20 290 0
20 300 0
20 310 0
20 320 0
20 330 0
20 340 0
20 350 0
20 360 0
20 370 0
20 380 0
20 390 0
20 400 0
20 410 0
20 420 0
20 430 0
20 440 0
20 450 0
20 460 0
20 470 0
20 480 0
20 490 0
20 500 0
20 510 0
20 520 0
20 530 0
20 540 0
20 550 0
20 560 0
20 570 0
20 580 0
20 590 0
20 600 0
20 610 0
20 620 0
20 630 0
20 640 0
20 650 0
20 660 0
20 670 0
20 680 0
20 690 0
20 700 0
20 710 0
20 720 0
20 730 0
20 740 0
20 750 0
20 760 0
20 770 0
20 780 0
20 790 0
20 800 0
20 810 0
20 820 0
20 830 0
20 840 0
20 850 0
20 860 0
20 870 0
20 880 0
20 890 0
20 900 0
20 910 0
20 920 0
20 930 0
20 940 0
20 950 0
20 960 0
20 970 0
20 980 0
20 990 0
20 1000 0
20 1010 0
20 1020 0
20 1030 0
20 1040 0
20 1050 0
20 1060 0
20 1070 0
20 1080 0
20 1090 0
20 1100 0
20 1110 0
20 1120 0
20 1130 0
20 1140 0
20 1150 0
20 1160 0
20 1170 0
20 1180 0
20 1190 0
20 1200 0
20 1210 0
20 1220 0
20 1230 0
20 1240 0
20 1250 0
20 1260 0
20 1270 0
20 1280 0
20 1290 0
20 1300 0
20 1310 0
20 1320 0
20 1330 0
20 1340 0
20 1350 0
20 1360 0
20 1370 0
20 1380 0
20 1390 0
20 1400 0
20 1410 0
20 1420 0
20 1430 0
20 1440 0
20 1450 0
20 1460 0
20 1470 0
20 1480 0
20 1490 0
20 1500 0
20 1510 0
20 1520 0
20 1530 0
20 1540 0
20 1550 0
20 1560 0
20 1570 0
20 1580 0
20 1590 0
20 1600 0
20 1610 0
20 1620 0
20 1630 0
20 1640 0
20 1650 0
20 1660 0
20 1670 0
20 1680 0
20 1690 0
20 1700 0
20 1710 0
20 1720 0
20 1730 0
20 1740 0
20 1750 0
20 1760 0
20 1770 0
20 1780 0
20 1790 0
20 1800 0
20 1810 0
20 1820 0
20 1830 0
20 1840 0
20 1850 0
20 1860 0
20 1870 0
20 1880 0
20 1890 0
20 1900 0
20 1910 0
20 1920 0
20 1930 0
20 1940 0
20 1950 0
20 1960 0
20 1970 0
20 1980 0
20 1990 0
20 2000 0
20 2010 0
20 2020 0
20 2030 0
20 2040 0
20 2050 0
20 2060 0
20 2070 0
20 2080 0
20 2090 0
20 2100 0
20 2110 0
20 2120 0
20 2130 0
20 2140 0
20 2150 0
20 2160 0
20 2170 0
20 2180 0
20 2190 0
20 2200 0
20 2210 0
20 2220 0
20 2230 0
20 2240 0
20 2250 0
20 2260 0
20 2270 0
20 2280 0
20 2290 0
20 2300 0
20 2310 0
20 2320 0
20 2330 0
20 2340 0
20 2350 0
20 2360 0
20 2370 0
20 2380 0
20 2390 0
20 2400 0
20 2410 0
20 2420 0
20 2430 0
20 2440 0
20 2450 0
20 2460 0
20 2470 0
20 2480 0
20 2490 0
20 2500 0
20 2510 0
20 2520 0
20 2530 0
20 2540 0
20 2550 0
20 2560 0
20 2570 0
20 2580 0
20 2590 0
20 2600 0
20 2610 0
20 2620 0
20 2630 0
20 2640 0
20 2650 0
20 2660 0
20 2670 0
20 2680 0
20 2690 0
20 2700 0
20 2710 0
20 2720 0
20 2730 0
20 2740 0
20 2750 0
20 2760 0
20 2770 0
20 2780 0
20 2790 0
20 2800 0
20 2810 0
20 2820 0
20 2830 0
20 2840 0
20 2850 0
20 2860 0
20 2870 0
20 2880 0
20 2890 0
20 2900 0
20 2910 0
20 2920 0
20 2930 0
20 2940 0
20 2950 0
20 2960 0
20 2970 0
20 2980 0
20 2990 0
20 3000 0
30 0 0
30 10 0
30 20 0
30 30 0
30 40 0
30 50 0
30 60 0
30 70 0
30 80 0
30 90 0
30 100 0
30 110 0
30 120 0
30 130 0
30 140 0
30 150 0
30 160 0
30 170 0
30 180 0
30 190 0
30 200 0
30 210 0
30 220 0
30 230 0
30 240 0
30 250 0
30 260 0
30 270 0
30 280 0
30 290 0
30 300 0
30 310 0
30 320 0
30 330 0
30 340 0
30 350 0
30 360 0
30 370 0
30 380 0
30 390 0
30 400 0
30 410 0
30 420 0
30 430 0
30 440 0
30 450 0
30 460 0
30 470 0
30 480 0
30 490 0
30 500 0
30 510 0
30 520 0
30 530 0
30 540 0
30 550 0
30 560 0
30 570 0
30 580 0
30 590 0
30 600 0
30 610 0
30 620 0
30 630 0
30 640 0
30 650 0
30 660 0
30 670 0
30 680 0
30 690 0
30 700 0
30 710 0
30 720 0
30 730 0
30 740 0
30 750 0
30 760 0
30 770 0
30 780 0
30 790 0
30 800 0
30 810 0
30 820 0
30 830 0
30 840 0
30 850 0
30 860 0
30 870 0
30 880 0
30 890 0
30 900 0
30 910 0
30 920 0
30 930 0
30 940 0
30 950 0
30 960 0
30 970 0
30 980 0
30 990 0
30 1000 0
30 1010 0
30 1020 0
30 1030 0
30 1040 0
30 1050 0
30 1060 0
30 1070 0
30 1080 0
30 1090 0
30 1100 0
30 1110 0
30 1120 0
30 1130 0
30 1140 0
30 1150 0
30 1160 0
30 1170 0
30 1180 0
30 1190 0
30 1200 0
30 1210 0
30 1220 0
30 1230 0
30 1240 0
30 1250 0
30 1260 0
30 1270 0
30 1280 0
30 1290 0
30 1300 0
30 1310 0
30 1320 0
30 1330 0
30 1340 0
30 1350 0
30 1360 0
30 1370 0
30 1380 0
30 1390 0
30 1400 0
30 1410 0
30 1420 0
30 1430 0
30 1440 0
30 1450 0
30 1460 0
30 1470 0
30 1480 0
30 1490 0
30 1500 0
30 1510 0
30 1520 0
30 1530 0
30 1540 0
30 1550 0
30 1560 0
30 1570 0
30 1580 0
30 1590 0
[...]
POINT_DATA 90601
SCALARS P float
LOOKUP_TABLE default
100.0121
100.0121
100.0490
100.1371
100.2850
100.4917
100.7449
101.0235
101.3033
101.5612
101.7790
101.9442
102.0500
102.0943
102.0784
102.0056
101.8809
101.7096
101.4970
101.2483
100.9685
100.6617
100.3318
99.9822
99.6158
99.2351
98.8421
98.4388
98.0266
97.6070
97.1809
96.7494
96.3132
95.8731
95.4295
94.9831
94.5343
94.0833
93.6305
93.1761
92.7204
92.2636
91.8058
91.3471
90.8877
90.4277
89.9671
89.5061
89.0447
88.5829
88.1208
87.6584
87.1959
86.7331
86.2701
85.8071
85.3438
84.8805
84.4171
83.9536
83.4900
83.0263
82.5626
82.0989
81.6351
81.1712
80.7074
80.2435
79.7795
79.3156
78.8516
78.3877
77.9237
77.4597
76.9957
76.5316
76.0676
75.6036
75.1395
74.6755
74.2114
73.7474
73.2833
72.8192
72.3551
71.8911
71.4270
70.9629
70.4988
70.0348
69.5707
69.1066
68.6425
68.1784
67.7143
67.2502
66.7862
66.3221
65.8580
65.3939
64.9298
64.4657
64.0016
63.5375
63.0734
62.6093
62.1452
61.6811
61.2171
60.7530
60.2889
59.8248
59.3607
58.8966
58.4325
57.9684
57.5043
57.0402
56.5761
56.1119
55.6478
55.1837
54.7196
54.2555
53.7914
53.3273
52.8631
52.3990
51.9349
51.4707
51.0066
50.5424
50.0783
49.6141
49.1500
48.6858
48.2216
47.7574
47.2932
46.8290
46.3648
45.9006
45.4363
44.9721
44.5078
44.0436
43.5793
43.1150
42.6507
42.1864
41.7221
41.2578
40.7935
40.3292
39.8648
39.4005
38.9362
38.4719
38.0076
37.5433
37.0790
36.6148
36.1506
35.6865
35.2224
34.7584
34.2945
33.8307
33.3670
32.9034
32.4399
31.9767
31.5136
31.0508
30.5882
30.1259
29.6639
29.2023
28.7411
28.2803
27.8200
27.3602
26.9010
26.4425
25.9847
25.5276
25.0714
24.6161
24.1617
23.7085
23.2564
22.8056
22.3561
21.9081
21.4616
21.0167
20.5737
20.1325
19.6934
19.2563
18.8216
18.3892
17.9594
17.5323
17.1079
16.6866
16.2684
15.8534
15.4418
15.0339
14.6296
14.2293
13.8330
13.4409
13.0531
12.6699
12.2913
11.9176
11.5489
11.1852
10.8269
10.4739
10.1265
9.7848
9.4488
9.1188
8.7949
8.4771
8.1655
7.8603
7.5615
7.2693
6.9836
6.7046
6.4323
6.1667
5.9079
5.6560
5.4109
5.1726
4.9412
4.7166
4.4989
4.2879
4.0837
3.8862
3.6954
3.5112
3.3335
3.1623
2.9974
2.8389
2.6865
2.5402
2.3998
2.2653
2.1366
2.0134
1.8957
1.7834
1.6762
1.5742
1.4770
1.3846
1.2968
1.2135
1.1346
1.0598
0.9890
0.9221
0.8590
0.7994
0.7433
0.6905
0.6408
0.5942
0.5504
0.5093
0.4709
0.4350
0.4014
0.3700
0.3408
0.3135
0.2882
0.2647
0.2428
0.2225
0.2037
0.1864
0.1703
0.1555
0.1418
0.1292
0.1177
0.1072
0.0976
0.0891
0.0819
0.0761
0.0726
100.0121
100.0121
100.0490
100.1371
100.2850
100.4917
100.7449
101.0235
101.3033
101.5612
101.7790
101.9442
102.0500
102.0943
102.0784
102.0056
101.8809
101.7096
101.4970
101.2483
100.9685
100.6617
100.3318
99.9822
99.6158
99.2351
98.8421
98.4388
98.0266
97.6070
97.1809
96.7494
96.3132
95.8731
95.4295
94.9831
94.5343
94.0833
93.6305
93.1761
92.7204
92.2636
91.8058
91.3471
90.8877
90.4277
89.9671
89.5061
89.0447
88.5829
88.1208
87.6584
87.1959
86.7331
86.2701
85.8071
85.3438
84.8805
84.4171
83.9536
83.4900
83.0263
82.5626
82.0989
81.6351
81.1712
80.7074
80.2435
79.7795
79.3156
78.8516
78.3877
77.9237
77.4597
76.9957
76.5316
76.0676
75.6036
75.1395
74.6755
74.2114
73.7474
73.2833
72.8192
72.3551
71.8911
71.4270
70.9629
70.4988
70.0348
69.5707
69.1066
68.6425
68.1784
67.7143
67.2502
66.7862
66.3221
65.8580
65.3939
64.9298
64.4657
64.0016
63.5375
63.0734
62.6093
62.1452
61.6811
61.2171
60.7530
60.2889
59.8248
59.3607
58.8966
58.4325
57.9684
57.5043
57.0402
56.5761
56.1119
55.6478
55.1837
54.7196
54.2555
53.7914
53.3273
52.8631
52.3990
51.9349
51.4707
51.0066
50.5424
50.0783
49.6141
49.1500
48.6858
48.2216
47.7574
47.2932
46.8290
46.3648
45.9006
45.4363
44.9721
44.5078
44.0436
43.5793
43.1150
42.6507
42.1864
41.7221
41.2578
40.7935
40.3292
39.8648
39.4005
38.9362
38.4719
38.0076
37.5433
37.0790
36.6148
36.1506
35.6865
35.2224
34.7584
34.2945
33.8307
33.3670
32.9034
32.4399
31.9767
31.5136
31.0508
30.5882
30.1259
29.6639
29.2023
28.7411
28.2803
27.8200
27.3602
26.9010
26.4425
25.9847
25.5276
25.0714
24.6161
24.1617
23.7085
23.2564
22.8056
22.3561
21.9081
21.4616
21.0167
20.5737
20.1325
19.6934
19.2563
18.8216
18.3892
17.9594
17.5323
17.1079
16.6866
16.2684
15.8534
15.4418
15.0339
14.6296
14.2293
13.8330
13.4409
13.0531
12.6699
12.2913
11.9176
11.5489
11.1852
10.8269
10.4739
10.1265
9.7848
9.4488
9.1188
8.7949
8.4771
8.1655
7.8603
7.5615
7.2693
6.9836
6.7046
6.4323
6.1667
5.9079
5.6560
5.4109
5.1726
4.9412
4.7166
4.4989
4.2879
4.0837
3.8862
3.6954
3.5112
3.3335
3.1623
2.9974
2.8389
2.6865
2.5402
2.3998
2.2653
2.1366
2.0134
1.8957
1.7834
1.6762
1.5742
1.4770
1.3846
1.2968
1.2135
1.1346
1.0598
0.9890
0.9221
0.8590
0.7994
0.7433
0.6905
0.6408
0.5942
0.5504
0.5093
0.4709
0.4350
0.4014
0.3700
0.3408
0.3135
0.2882
0.2647
0.2428
0.2225
0.2037
0.1864
0.1703
0.1555
0.1418
0.1292
0.1177
0.1072
0.0976
0.0891
0.0819
0.0761
0.0726
100.3033
100.3033
100.3521
100.4677
100.6591
100.9197
101.2265
101.5476
101.8511
102.1119
102.3137
102.4486
102.5145
102.5141
102.4520
102.3344
102.1676
101.9578
101.7108
101.4319
101.1256
100.7960
100.4465
100.0800
99.6992
99.3062
98.9028
98.4906
98.0709
97.6448
97.2132
96.7770
96.3369
95.8934
95.4470
94.9981
94.5471
94.0944
93.6400
93.1843
92.7275
92.2697
91.8111
91.3517
90.8917
90.4311
89.9701
89.5087
89.0469
88.5848
88.1225
87.6599
87.1971
86.7342
86.2711
85.8079
85.3446
84.8811
84.4176
83.9540
83.4904
83.0267
82.5629
82.0991
81.6353
81.1714
80.7075
80.2436
79.7797
79.3157
78.8518
78.3878
77.9238
77.4598
76.9957
76.5317
76.0677
75.6036
75.1396
74.6755
74.2114
73.7474
73.2833
72.8192
72.3552
71.8911
71.4270
70.9629
70.4989
70.0348
69.5707
69.1066
68.6425
68.1784
67.7143
67.2503
66.7862
66.3221
65.8580
65.3939
64.9298
64.4657
64.0016
63.5375
63.0734
62.6093
62.1452
61.6811
61.2171
60.7530
60.2889
59.8248
59.3607
58.8966
58.4325
57.9684
57.5043
57.0402
56.5761
56.1119
55.6478
55.1837
54.7196
54.2555
53.7914
53.3273
52.8631
52.3990
51.9349
51.4707
51.0066
50.5424
50.0783
49.6141
49.1500
48.6858
48.2216
47.7574
47.2932
46.8290
46.3648
45.9006
45.4363
44.9721
44.5078
44.0436
43.5793
43.1150
42.6507
42.1864
41.7221
41.2578
40.7935
40.3292
39.8648
39.4005
38.9362
38.4719
38.0076
37.5433
37.0790
36.6148
36.1506
35.6865
35.2224
34.7584
34.2945
33.8307
33.3670
32.9034
32.4399
31.9767
31.5136
31.0508
30.5882
30.1259
29.6639
29.2023
28.7411
28.2803
27.8200
27.3602
26.9010
26.4425
25.9847
25.5276
25.0714
24.6161
24.1617
23.7085
23.2564
22.8056
22.3561
21.9081
21.4616
21.0167
20.5737
20.1325
19.6934
19.2563
18.8216
18.3892
17.9594
17.5323
17.1079
16.6866
16.2684
15.8534
15.4418
15.0339
14.6296
14.2293
13.8330
13.4409
13.0531
12.6699
12.2913
11.9176
11.5489
11.1852
10.8269
10.4739
10.1265
9.7848
9.4488
9.1188
8.7949
8.4771
8.1655
7.8603
7.5615
7.2693
6.9836
6.7046
6.4323
6.1667
5.9079
5.6560
5.4109
5.1726
4.9412
4.7166
4.4989
4.2879
4.0837
3.8862
3.6954
3.5112
3.3335
3.1623
2.9974
2.8389
2.6865
2.5402
2.3998
2.2653
2.1366
2.0134
1.8957
1.7834
1.6762
1.5742
1.4770
1.3846
1.2968
1.2135
1.1346
1.0598
0.9890
0.9221
0.8590
0.7994
0.7433
0.6905
0.6408
0.5942
0.5504
0.5093
0.4709
0.4350
0.4014
0.3700
0.3408
0.3135
0.2882
0.2647
0.2428
0.2225
0.2037
0.1864
0.1703
0.1555
0.1418
0.1292
0.1177
0.1072
0.0976
0.0891
0.0819
0.0761
0.0726
101.0799
101.0799
101.1653
101.3661
101.6918
102.1164
102.5797
103.0150
103.3717
103.6235
103.7646
103.8019
103.7488
103.6200
103.4297
103.1897
102.9100
102.5985
102.2615
101.9036
101.5289
101.1403
100.7401
100.3304
99.9127
99.4883
99.0582
98.6232
98.1841
97.7416
97.2960
96.8480
96.3977
95.9455
95.4917
95.0366
94.5802
94.1228
93.6645
93.2055
92.7458
92.2855
91.8247
91.3634
90.9019
90.4399
89.9777
89.5153
89.0526
88.5898
88.1268
87.6637
87.2004
86.7370
86.2736
85.8101
85.3464
84.8828
84.4191
83.9553
83.4915
83.0276
82.5638
82.0999
81.6359
81.1720
80.7080
80.2441
79.7801
79.3161
78.8520
78.3880
77.9240
77.4599
76.9959
76.5318
76.0678
75.6037
75.1397
74.6756
74.2115
73.7474
73.2834
72.8193
72.3552
71.8911
71.4270
70.9630
70.4989
70.0348
69.5707
69.1066
68.6425
68.1784
67.7144
67.2503
66.7862
66.3221
65.8580
65.3939
64.9298
64.4657
64.0016
63.5375
63.0734
62.6093
62.1452
61.6811
61.2171
60.7530
60.2889
59.8248
59.3607
58.8966
58.4325
57.9684
57.5043
57.0402
56.5761
56.1119
55.6478
55.1837
54.7196
54.2555
53.7914
53.3273
52.8631
52.3990
51.9349
51.4707
51.0066
50.5424
50.0783
49.6141
49.1500
48.6858
48.2216
47.7574
47.2932
46.8290
46.3648
45.9006
45.4363
44.9721
44.5078
44.0436
43.5793
43.1150
42.6507
42.1864
41.7221
41.2578
40.7935
40.3292
39.8648
39.4005
38.9362
38.4719
38.0076
37.5433
37.0790
36.6148
36.1506
35.6865
35.2224
34.7584
34.2945
33.8307
33.3670
32.9034
32.4399
31.9767
31.5136
31.0508
30.5882
30.1259
29.6639
29.2023
28.7411
28.2803
27.8200
27.3602
26.9010
26.4425
25.9847
25.5276
25.0714
24.6161
24.1617
23.7085
23.2564
22.8056
22.3561
21.9081
21.4616
21.0167
20.5737
20.1325
19.6934
19.2563
18.8216
18.3892
17.9594
17.5323
17.1079
16.6866
16.2684
15.8534
15.4418
15.0339
14.6296
14.2293
13.8330
13.4409
13.0531
12.6699
12.2913
11.9176
11.5489
11.1852
10.8269
10.4739
10.1265
9.7848
9.4488
9.1188
8.7949
8.4771
8.1655
7.8603
7.5615
7.2693
6.9836
6.7046
6.4323
6.1667
5.9079
5.6560
5.4109
5.1726
4.9412
4.7166
4.4989
4.2879
4.0837
3.8862
3.6954
3.5112
3.3335
3.1623
2.9974
2.8389
2.6865
2.5402
2.3998
2.2653
2.1366
2.0134
1.8957
1.7834
1.6762
1.5742
1.4770
1.3846
1.2968
1.2135
1.1346
1.0598
0.9890
0.9221
0.8590
0.7994
0.7433
0.6905
0.6408
0.5942
0.5504
0.5093
0.4709
0.4350
0.4014
0.3700
0.3408
0.3135
0.2882
0.2647
0.2428
0.2225
0.2037
0.1864
0.1703
0.1555
0.1418
0.1292
0.1177
0.1072
0.0976
0.0891
0.0819
0.0761
0.0726
102.6484
102.6484
102.8267
103.2452
103.9144
104.7488
105.5737
106.2344
106.6528
106.8210
106.7729
106.5573
106.2220
105.8068
105.3418
104.8480
104.3397
103.8259
103.3119
102.8009
102.2944
101.7928
101.2962
100.8043
100.3167
99.8328
99.3522
98.8743
98.3987
97.9251
97.4531
96.9825
96.5131
96.0446
95.5768
95.1097
94.6431
94.1770
93.7112
93.2458
92.7805
92.3155
91.8507
91.3859
90.9213
90.4568
89.9924
89.5280
89.0636
88.5994
88.1351
87.6709
87.2067
86.7425
86.2783
85.8142
85.3501
84.8859
84.4218
83.9577
83.4936
83.0295
82.5654
82.1013
81.6372
81.1731
80.7090
80.2449
79.7808
79.3167
78.8526
78.3885
77.9244
77.4603
76.9962
76.5321
76.0680
75.6039
75.1399
74.6758
74.2117
73.7476
73.2835
72.8194
72.3553
71.8912
71.4271
70.9630
70.4989
70.0348
69.5707
69.1067
68.6426
68.1785
67.7144
67.2503
66.7862
66.3221
65.8580
65.3939
64.9298
64.4657
64.0016
63.5375
63.0734
62.6093
62.1453
61.6812
61.2171
60.7530
60.2889
59.8248
59.3607
58.8966
58.4325
57.9684
57.5043
57.0402
56.5761
56.1119
55.6478
55.1837
54.7196
54.2555
53.7914
53.3273
52.8631
52.3990
51.9349
51.4707
51.0066
50.5424
50.0783
49.6141
49.1500
48.6858
48.2216
47.7574
47.2932
46.8290
46.3648
45.9006
45.4363
44.9721
44.5078
44.0436
43.5793
43.1150
42.6507
42.1864
41.7221
41.2578
40.7935
40.3292
39.8648
39.4005
38.9362
38.4719
38.0076
37.5433
37.0790
36.6148
36.1506
35.6865
35.2224
34.7584
34.2945
33.8307
33.3670
32.9034
32.4399
31.9767
31.5136
31.0508
30.5882
30.1259
29.6639
29.2023
28.7411
28.2803
27.8200
27.3602
26.9010
26.4425
25.9847
25.5276
25.0714
24.6161
24.1617
23.7085
23.2564
22.8056
22.3561
21.9081
21.4616
21.0167
20.5737
20.1325
19.6934
19.2563
18.8216
18.3892
17.9594
17.5323
17.1079
16.6866
16.2684
15.8534
15.4418
15.0339
14.6296
14.2293
13.8330
13.4409
13.0531
12.6699
12.2913
11.9176
11.5489
11.1852
10.8269
10.4739
10.1265
9.7848
9.4488
9.1188
8.7949
8.4771
8.1655
7.8603
7.5615
7.2693
6.9836
6.7046
6.4323
6.1667
5.9079
5.6560
5.4109
5.1726
4.9412
4.7166
4.4989
4.2879
4.0837
3.8862
3.6954
3.5112
3.3335
3.1623
2.9974
2.8389
2.6865
2.5402
2.3998
2.2653
2.1366
2.0134
1.8957
1.7834
1.6762
1.5742
1.4770
1.3846
1.2968
1.2135
1.1346
1.0598
0.9890
0.9221
0.8590
0.7994
0.7433
0.6905
0.6408
0.5942
0.5504
0.5093
0.4709
0.4350
0.4014
0.3700
0.3408
0.3135
0.2882
0.2647
0.2428
0.2225
0.2037
0.1864
0.1703
0.1555
0.1418
0.1292
0.1177
0.1072
0.0976
0.0891
0.0819
0.0761
0.0726
105.4757
105.4757
105.8771
106.8265
108.3446
110.1704
111.7605
112.7682
113.1279
112.9429
112.3701
111.5563
110.6150
109.6244
108.6340
107.6726
106.7547
105.8861
105.0671
104.2951
103.5661
102.8752
102.2179
101.5895
100.9860
100.4038
99.8396
99.2908
98.7549
98.2300
97.7144
97.2066
96.7054
96.2097
95.7188
95.2319
94.7484
94.2678
93.7895
93.3133
92.8389
92.3660
91.8943
91.4237
90.9541
90.4852
90.0170
89.5494
89.0822
88.6155
88.1491
87.6831
87.2173
86.7518
86.2864
85.8212
85.3562
84.8913
84.4265
83.9618
83.4971
83.0326
82.5681
82.1036
81.6392
81.1749
80.7106
80.2463
79.7820
79.3178
78.8535
78.3893
77.9251
77.4610
76.9968
76.5326
76.0685
75.6043
75.1402
74.6761
74.2119
73.7478
73.2837
72.8196
72.3555
71.8913
71.4272
70.9631
70.4990
70.0349
69.5708
69.1067
68.6426
68.1785
67.7144
67.2503
66.7862
66.3221
65.8580
65.3939
64.9298
64.4657
64.0016
63.5375
63.0735
62.6094
62.1453
61.6812
61.2171
60.7530
60.2889
59.8248
59.3607
58.8966
58.4325
57.9684
57.5043
57.0402
56.5761
56.1119
55.6478
55.1837
54.7196
54.2555
53.7914
53.3273
52.8631
52.3990
51.9349
51.4707
51.0066
50.5424
50.0783
49.6141
49.1500
48.6858
48.2216
47.7574
47.2932
46.8290
46.3648
45.9006
45.4363
44.9721
44.5078
44.0436
43.5793
43.1150
42.6507
42.1864
41.7221
41.2578
40.7935
40.3292
39.8648
39.4005
38.9362
38.4719
38.0076
37.5433
37.0790
36.6148
36.1506
35.6865
35.2224
34.7584
34.2945
33.8307
33.3670
32.9034
32.4399
31.9767
31.5136
31.0508
30.5882
30.1259
29.6639
29.2023
28.7411
28.2803
27.8200
27.3602
26.9010
26.4425
25.9847
25.5276
25.0714
24.6161
24.1617
23.7085
23.2564
22.8056
22.3561
21.9081
21.4616
21.0167
20.5737
20.1325
19.6934
19.2563
18.8216
18.3892
17.9594
17.5323
17.1079
16.6866
16.2684
15.8534
15.4418
15.0339
14.6296
14.2293
13.8330
13.4409
13.0531
12.6699
12.2913
11.9176
11.5489
11.1852
10.8269
10.4739
10.1265
9.7848
9.4488
9.1188
8.7949
8.4771
8.1655
7.8603
7.5615
7.2693
6.9836
6.7046
6.4323
6.1667
5.9079
5.6560
5.4109
5.1726
4.9412
4.7166
4.4989
4.2879
4.0837
3.8862
3.6954
3.5112
3.3335
3.1623
2.9974
2.8389
2.6865
2.5402
2.3998
2.2653
2.1366
2.0134
1.8957
1.7834
1.6762
1.5742
1.4770
1.3846
1.2968
1.2135
1.1346
1.0598
0.9890
0.9221
0.8590
0.7994
0.7433
0.6905
0.6408
0.5942
0.5504
0.5093
0.4709
0.4350
0.4014
0.3700
0.3408
0.3135
0.2882
0.2647
0.2428
0.2225
0.2037
0.1864
0.1703
0.1555
0.1418
0.1292
0.1177
0.1072
0.0976
0.0891
0.0819
0.0761
0.0726
110.2290
110.2290
111.1484
113.3708
117.0014
121.2806
124.3570
125.6105
125.3091
123.9788
122.0892
119.9704
117.8261
115.7688
113.8532
112.0992
110.5071
109.0673
107.7653
106.5852
105.5114
104.5293
103.6256
102.7887
102.0087
101.2768
100.5856
99.9289
99.3012
98.6982
98.1160
97.5515
97.0018
96.4647
95.9383
95.4211
94.9115
94.4085
93.9111
93.4184
92.9298
92.4446
91.9625
91.4828
91.0053
90.5296
90.0556
89.5829
89.1114
88.6408
88.1712
87.7023
87.2340
86.7663
86.2991
85.8323
85.3659
84.8997
84.4339
83.9682
83.5028
83.0375
82.5724
82.1074
81.6426
81.1778
80.7131
80.2485
79.7840
79.3195
78.8550
78.3906
77.9263
77.4620
76.9977
76.5334
76.0692
75.6049
75.1407
74.6765
74.2123
73.7482
73.2840
72.8198
72.3557
71.8916
71.4274
70.9633
70.4992
70.0351
69.5709
69.1068
68.6427
68.1786
67.7145
67.2504
66.7863
66.3222
65.8581
65.3940
64.9299
64.4658
64.0017
63.5376
63.0735
62.6094
62.1453
61.6812
61.2171
60.7530
60.2889
59.8248
59.3607
58.8966
58.4325
57.9684
57.5043
57.0402
56.5761
56.1120
55.6478
55.1837
54.7196
54.2555
53.7914
53.3273
52.8631
52.3990
51.9349
51.4707
51.0066
50.5424
50.0783
49.6141
49.1500
48.6858
48.2216
47.7574
47.2932
46.8290
46.3648
45.9006
45.4363
44.9721
44.5078
44.0436
43.5793
43.1150
42.6507
42.1864
41.7221
41.2578
40.7935
40.3292
39.8648
39.4005
38.9362
38.4719
38.0076
37.5433
37.0790
36.6148
36.1506
35.6865
35.2224
34.7584
34.2945
33.8307
33.3670
32.9034
32.4399
31.9767
31.5136
31.0508
30.5882
30.1259
29.6639
29.2023
28.7411
28.2803
27.8200
27.3602
26.9010
26.4425
25.9847
25.5276
25.0714
24.6161
24.1617
23.7085
23.2564
22.8056
22.3561
21.9081
21.4616
21.0167
20.5737
20.1325
19.6934
19.2563
18.8216
18.3892
17.9594
17.5323
17.1079
16.6866
16.2684
15.8534
15.4418
15.0339
14.6296
14.2293
13.8330
13.4409
13.0531
12.6699
12.2913
11.9176
11.5489
11.1852
10.8269
10.4739
10.1265
9.7848
9.4488
9.1188
8.7949
8.4771
8.1655
7.8603
7.5615
7.2693
6.9836
6.7046
6.4323
6.1667
5.9079
5.6560
5.4109
5.1726
4.9412
4.7166
4.4989
4.2879
4.0837
3.8862
3.6954
3.5112
3.3335
3.1623
2.9974
2.8389
2.6865
2.5402
2.3998
2.2653
2.1366
2.0134
1.8957
1.7834
1.6762
1.5742
1.4770
1.3846
1.2968
1.2135
1.1346
1.0598
0.9890
0.9221
0.8590
0.7994
0.7433
0.6905
0.6408
0.5942
0.5504
0.5093
0.4709
0.4350
0.4014
0.3700
0.3408
0.3135
0.2882
0.2647
0.2428
0.2225
0.2037
0.1864
0.1703
0.1555
0.1418
0.1292
0.1177
0.1072
0.0976
0.0891
0.0819
0.0761
0.0726
117.7523
117.7523
119.8222
125.0341
134.0263
144.8036
150.1870
150.3032
147.2475
142.7650
137.9018
133.1899
128.8610
124.9898
121.5750
118.5817
115.9630
113.6701
111.6569
109.8822
108.3096
106.9081
105.6510
104.5156
103.4830
102.5370
101.6641
100.8529
100.0937
99.3785
98.7006
98.0543
97.4346
96.8377
96.2599
95.6986
95.1512
94.6157
94.0903
93.5735
93.0641
92.5611
92.0634
91.5704
91.0814
90.5957
90.1130
89.6328
89.1548
88.6787
88.2042
87.7310
87.2591
86.7882
86.3182
85.8490
85.3804
84.9124
84.4450
83.9779
83.5113
83.0449
82.5789
82.1131
81.6475
81.1822
80.7169
80.2519
79.7869
79.3220
78.8573
78.3926
77.9280
77.4635
76.9990
76.5346
76.0702
75.6058
75.1415
74.6772
74.2130
73.7487
73.2845
72.8203
72.3561
71.8919
71.4277
70.9636
70.4994
70.0352
69.5711
69.1070
68.6428
68.1787
67.7146
67.2505
66.7864
66.3222
65.8581
65.3940
64.9299
64.4658
64.0017
63.5376
63.0735
62.6094
62.1453
61.6812
61.2171
60.7530
60.2889
59.8248
59.3607
58.8966
58.4325
57.9684
57.5043
57.0402
56.5761
56.1120
55.6478
55.1837
54.7196
54.2555
53.7914
53.3273
52.8631
52.3990
51.9349
51.4707
51.0066
50.5424
50.0783
49.6141
49.1500
48.6858
48.2216
47.7574
47.2932
46.8290
46.3648
45.9006
45.4363
44.9721
44.5078
44.0436
43.5793
43.1150
42.6507
42.1864
41.7221
41.2578
40.7935
40.3292
39.8648
39.4005
38.9362
38.4719
38.0076
37.5433
37.0790
36.6148
36.1506
35.6865
35.2224
34.7584
34.2945
33.8307
33.3670
32.9034
32.4399
31.9767
31.5136
31.0508
30.5882
30.1259
29.6639
29.2023
28.7411
28.2803
27.8200
27.3602
26.9010
26.4425
25.9847
25.5276
25.0714
24.6161
24.1617
23.7085
23.2564
22.8056
22.3561
21.9081
21.4616
21.0167
20.5737
20.1325
19.6934
19.2563
18.8216
18.3892
17.9594
17.5323
17.1079
16.6866
16.2684
15.8534
15.4418
15.0339
14.6296
14.2293
13.8330
13.4409
13.0531
12.6699
12.2913
11.9176
11.5489
11.1852
10.8269
10.4739
10.1265
9.7848
9.4488
9.1188
8.7949
8.4771
8.1655
7.8603
7.5615
7.2693
6.9836
6.7046
6.4323
6.1667
5.9079
5.6560
5.4109
5.1726
4.9412
4.7166
4.4989
4.2879
4.0837
3.8862
3.6954
3.5112
3.3335
3.1623
2.9974
2.8389
2.6865
2.5402
2.3998
2.2653
2.1366
2.0134
1.8957
1.7834
1.6762
1.5742
1.4770
1.3846
1.2968
1.2135
1.1346
1.0598
0.9890
0.9221
0.8590
0.7994
0.7433
0.6905
0.6408
0.5942
0.5504
0.5093
0.4709
0.4350
0.4014
0.3700
0.3408
0.3135
0.2882
0.2647
0.2428
0.2225
0.2037
0.1864
0.1703
0.1555
0.1418
0.1292
0.1177
0.1072
0.0976
0.0891
0.0819
0.0761
0.0726
128.8535
128.8535
133.2792
145.1780
167.9909
198.3029
203.6834
196.0385
184.2930
172.3742
161.6338
152.3703
144.5083
137.8655
132.2488
127.4851
123.4276
119.9547
116.9667
114.3814
112.1316
110.1617
108.4259
106.8863
105.5112
104.2746
103.1545
102.1326
101.1938
100.3251
99.5159
98.7570
98.0409
97.3611
96.7122
96.0897
95.4896
94.9087
94.3442
93.7937
93.2551
92.7269
92.2074
91.6955
91.1902
90.6904
90.1954
89.7046
89.2173
88.7332
88.2517
87.7725
87.2953
86.8198
86.3458
85.8731
85.4015
84.9309
84.4611
83.9920
83.5236
83.0558
82.5884
82.1214
81.6548
81.1885
80.7225
80.2568
79.7912
79.3258
78.8606
78.3955
77.9306
77.4657
77.0010
76.5363
76.0717
75.6072
75.1427
74.6783
74.2139
73.7495
73.2852
72.8209
72.3566
71.8924
71.4281
70.9639
70.4997
70.0355
69.5714
69.1072
68.6430
68.1789
67.7148
67.2506
66.7865
66.3224
65.8582
65.3941
64.9300
64.4659
64.0018
63.5377
63.0735
62.6094
62.1453
61.6812
61.2171
60.7530
60.2889
59.8248
59.3607
58.8966
58.4325
57.9684
57.5043
57.0402
56.5761
56.1120
55.6479
55.1837
54.7196
54.2555
53.7914
53.3273
52.8631
52.3990
51.9349
51.4707
51.0066
50.5424
50.0783
49.6141