# vtk DataFile Version 5.0
Example 3D regular grid VTK file.
ASCII
DATASET UNSTRUCTURED_GRID
POINTS 90601 float
0 0 0
0 10 0
0 20 0
0 30 0
0 40 0
0 50 0
0 60 0
0 70 0
0 80 0
0 90 0
0 100 0
0 110 0
0 120 0
0 130 0
0 140 0
0 150 0
0 160 0
0 170 0
0 180 0
0 190 0
0 200 0
0 210 0
0 220 0
0 230 0
0 240 0
0 250 0
0 260 0
0 270 0
0 280 0
0 290 0
0 300 0
0 310 0
0 320 0
0 330 0
0 340 0
0 350 0
0 360 0
0 370 0
0 380 0
0 390 0
0 400 0
0 410 0
0 420 0
0 430 0
0 440 0
0 450 0
0 460 0
0 470 0
0 480 0
0 490 0
0 500 0
0 510 0
0 520 0
0 530 0
0 540 0
0 550 0
0 560 0
0 570 0
0 580 0
0 590 0
0 600 0
0 610 0
0 620 0
0 630 0
0 640 0
0 650 0
0 660 0
0 670 0
0 680 0
0 690 0
0 700 0
0 710 0
0 720 0
0 730 0
0 740 0
0 750 0
0 760 0
0 770 0
0 780 0
0 790 0
0 800 0
0 810 0
0 820 0
0 830 0
0 840 0
0 850 0
0 860 0
0 870 0
0 880 0
0 890 0
0 900 0
0 910 0
0 920 0
0 930 0
0 940 0
0 950 0
0 960 0
0 970 0
0 980 0
0 990 0
0 1000 0
0 1010 0
0 1020 0
0 1030 0
0 1040 0
0 1050 0
0 1060 0
0 1070 0
0 1080 0
0 1090 0
0 1100 0
0 1110 0
0 1120 0
0 1130 0
0 1140 0
0 1150 0
0 1160 0
0 1170 0
0 1180 0
0 1190 0
0 1200 0
0 1210 0
0 1220 0
0 1230 0
0 1240 0
0 1250 0
0 1260 0
0 1270 0
0 1280 0
0 1290 0
0 1300 0
0 1310 0
0 1320 0
0 1330 0
0 1340 0
0 1350 0
0 1360 0
0 1370 0
0 1380 0
0 1390 0
0 1400 0
0 1410 0
0 1420 0
0 1430 0
0 1440 0
0 1450 0
0 1460 0
0 1470 0
0 1480 0
0 1490 0
0 1500 0
0 1510 0
0 1520 0
0 1530 0
0 1540 0
0 1550 0
0 1560 0
0 1570 0
0 1580 0
0 1590 0
0 1600 0
0 1610 0
0 1620 0
0 1630 0
0 1640 0
0 1650 0
0 1660 0
0 1670 0
0 1680 0
0 1690 0
0 1700 0
0 1710 0
0 1720 0
0 1730 0
0 1740 0
0 1750 0
0 1760 0
0 1770 0
0 1780 0
0 1790 0
0 1800 0
0 1810 0
0 1820 0
0 1830 0
0 1840 0
0 1850 0
0 1860 0
0 1870 0
0 1880 0
0 1890 0
0 1900 0
0 1910 0
0 1920 0
0 1930 0
0 1940 0
0 1950 0
0 1960 0
0 1970 0
0 1980 0
0 1990 0
0 2000 0
0 2010 0
0 2020 0
0 2030 0
0 2040 0
0 2050 0
0 2060 0
0 2070 0
0 2080 0
0 2090 0
0 2100 0
0 2110 0
0 2120 0
0 2130 0
0 2140 0
0 2150 0
0 2160 0
0 2170 0
0 2180 0
0 2190 0
0 2200 0
0 2210 0
0 2220 0
0 2230 0
0 2240 0
0 2250 0
0 2260 0
0 2270 0
0 2280 0
0 2290 0
0 2300 0
0 2310 0
0 2320 0
0 2330 0
0 2340 0
0 2350 0
0 2360 0
0 2370 0
0 2380 0
0 2390 0
0 2400 0
0 2410 0
0 2420 0
0 2430 0
0 2440 0
0 2450 0
0 2460 0
0 2470 0
0 2480 0
0 2490 0
0 2500 0
0 2510 0
0 2520 0
0 2530 0
0 2540 0
0 2550 0
0 2560 0
0 2570 0
0 2580 0
0 2590 0
0 2600 0
0 2610 0
0 2620 0
0 2630 0
0 2640 0
0 2650 0
0 2660 0
0 2670 0
0 2680 0
0 2690 0
0 2700 0
0 2710 0
0 2720 0
0 2730 0
0 2740 0
0 2750 0
0 2760 0
0 2770 0
0 2780 0
0 2790 0
0 2800 0
0 2810 0
0 2820 0
0 2830 0
0 2840 0
0 2850 0
0 2860 0
0 2870 0
0 2880 0
0 2890 0
0 2900 0
0 2910 0
0 2920 0
0 2930 0
0 2940 0
0 2950 0
0 2960 0
0 2970 0
0 2980 0
0 2990 0
0 3000 0
10 0 0
10 10 0
10 20 0
10 30 0
10 40 0
10 50 0
10 60 0
10 70 0
10 80 0
10 90 0
10 100 0
10 110 0
10 120 0
10 130 0
10 140 0
10 150 0
10 160 0
10 170 0
10 180 0
10 190 0
10 200 0
10 210 0
10 220 0
10 230 0
10 240 0
10 250 0
10 260 0
10 270 0
10 280 0
10 290 0
10 300 0
10 310 0
10 320 0
10 330 0
10 340 0
10 350 0
10 360 0
10 370 0
10 380 0
10 390 0
10 400 0
10 410 0
10 420 0
10 430 0
10 440 0
10 450 0
10 460 0
10 470 0
10 480 0
10 490 0
10 500 0
10 510 0
10 520 0
10 530 0
10 540 0
10 550 0
10 560 0
10 570 0
10 580 0
10 590 0
10 600 0
10 610 0
10 620 0
10 630 0
10 640 0
10 650 0
10 660 0
10 670 0
10 680 0
10 690 0
10 700 0
10 710 0
10 720 0
10 730 0
10 740 0
10 750 0
10 760 0
10 770 0
10 780 0
10 790 0
10 800 0
10 810 0
10 820 0
10 830 0
10 840 0
10 850 0
10 860 0
10 870 0
10 880 0
10 890 0
10 900 0
10 910 0
10 920 0
10 930 0
10 940 0
10 950 0
10 960 0
10 970 0
10 980 0
10 990 0
10 1000 0
10 1010 0
10 1020 0
10 1030 0
10 1040 0
10 1050 0
10 1060 0
10 1070 0
10 1080 0
10 1090 0
10 1100 0
10 1110 0
10 1120 0
10 1130 0
10 1140 0
10 1150 0
10 1160 0
10 1170 0
10 1180 0
10 1190 0
10 1200 0
10 1210 0
10 1220 0
10 1230 0
10 1240 0
10 1250 0
10 1260 0
10 1270 0
10 1280 0
10 1290 0
10 1300 0
10 1310 0
10 1320 0
10 1330 0
10 1340 0
10 1350 0
10 1360 0
10 1370 0
10 1380 0
10 1390 0
10 1400 0
10 1410 0
10 1420 0
10 1430 0
10 1440 0
10 1450 0
10 1460 0
10 1470 0
10 1480 0
10 1490 0
10 1500 0
10 1510 0
10 1520 0
10 1530 0
10 1540 0
10 1550 0
10 1560 0
10 1570 0
10 1580 0
10 1590 0
10 1600 0
10 1610 0
10 1620 0
10 1630 0
10 1640 0
10 1650 0
10 1660 0
10 1670 0
10 1680 0
10 1690 0
10 1700 0
10 1710 0
10 1720 0
10 1730 0
10 1740 0
10 1750 0
10 1760 0
10 1770 0
10 1780 0
10 1790 0
10 1800 0
10 1810 0
10 1820 0
10 1830 0
10 1840 0
10 1850 0
10 1860 0
10 1870 0
10 1880 0
10 1890 0
10 1900 0
10 1910 0
10 1920 0
10 1930 0
10 1940 0
10 1950 0
10 1960 0
10 1970 0
10 1980 0
10 1990 0
10 2000 0
10 2010 0
10 2020 0
10 2030 0
10 2040 0
10 2050 0
10 2060 0
10 2070 0
10 2080 0
10 2090 0
10 2100 0
10 2110 0
10 2120 0
10 2130 0
10 2140 0
10 2150 0
10 2160 0
10 2170 0
10 2180 0
10 2190 0
10 2200 0
10 2210 0
10 2220 0
10 2230 0
10 2240 0
10 2250 0
10 2260 0
10 2270 0
10 2280 0
10 2290 0
10 2300 0
10 2310 0
10 2320 0
10 2330 0
10 2340 0
10 2350 0
10 2360 0
10 2370 0
10 2380 0
10 2390 0
10 2400 0
10 2410 0
10 2420 0
10 2430 0
10 2440 0
10 2450 0
10 2460 0
10 2470 0
10 2480 0
10 2490 0
10 2500 0
10 2510 0
10 2520 0
10 2530 0
10 2540 0
10 2550 0
10 2560 0
10 2570 0
10 2580 0
10 2590 0
10 2600 0
10 2610 0
10 2620 0
10 2630 0
10 2640 0
10 2650 0
10 2660 0
10 2670 0
10 2680 0
10 2690 0
10 2700 0
10 2710 0
10 2720 0
10 2730 0
10 2740 0
10 2750 0
10 2760 0
10 2770 0
10 2780 0
10 2790 0
10 2800 0
10 2810 0
10 2820 0
10 2830 0
10 2840 0
10 2850 0
10 2860 0
10 2870 0
10 2880 0
10 2890 0
10 2900 0
10 2910 0
10 2920 0
10 2930 0
10 2940 0
10 2950 0
10 2960 0
10 2970 0
10 2980 0
10 2990 0
10 3000 0
20 0 0
20 10 0
20 20 0
20 30 0
20 40 0
20 50 0
20 60 0
20 70 0
20 80 0
20 90 0
20 100 0
20 110 0
20 120 0
20 130 0
20 140 0
20 150 0
20 160 0
20 170 0
20 180 0
20 190 0
20 200 0
20 210 0
20 220 0
20 230 0
20 240 0
20 250 0
20 260 0
20 270 0
20 280 0
20 290 0
20 300 0
20 310 0
20 320 0
20 330 0
20 340 0
20 350 0
20 360 0
20 370 0
20 380 0
20 390 0
20 400 0
20 410 0
20 420 0
20 430 0
20 440 0
20 450 0
20 460 0
20 470 0
20 480 0
20 490 0
20 500 0
20 510 0
20 520 0
20 530 0
20 540 0
20 550 0
20 560 0
20 570 0
20 580 0
20 590 0
20 600 0
20 610 0
20 620 0
20 630 0
20 640 0
20 650 0
20 660 0
20 670 0
20 680 0
20 690 0
20 700 0
20 710 0
20 720 0
20 730 0
20 740 0
20 750 0
20 760 0
20 770 0
20 780 0
20 790 0
20 800 0
20 810 0
20 820 0
20 830 0
20 840 0
20 850 0
20 860 0
20 870 0
20 880 0
20 890 0
20 900 0
20 910 0
20 920 0
20 930 0
20 940 0
20 950 0
20 960 0
20 970 0
20 980 0
20 990 0
20 1000 0
20 1010 0
20 1020 0
20 1030 0
20 1040 0
20 1050 0
20 1060 0
20 1070 0
20 1080 0
20 1090 0
20 1100 0
20 1110 0
20 1120 0
20 1130 0
20 1140 0
20 1150 0
20 1160 0
20 1170 0
20 1180 0
20 1190 0
20 1200 0
20 1210 0
20 1220 0
20 1230 0
20 1240 0
20 1250 0
20 1260 0
20 1270 0
20 1280 0
20 1290 0
20 1300 0
20 1310 0
20 1320 0
20 1330 0
20 1340 0
20 1350 0
20 1360 0
20 1370 0
20 1380 0
20 1390 0
20 1400 0
20 1410 0
20 1420 0
20 1430 0
20 1440 0
20 1450 0
20 1460 0
20 1470 0
20 1480 0
20 1490 0
20 1500 0
20 1510 0
20 1520 0
20 1530 0
20 1540 0
20 1550 0
20 1560 0
20 1570 0
20 1580 0
20 1590 0
20 1600 0
20 1610 0
20 1620 0
20 1630 0
20 1640 0
20 1650 0
20 1660 0
20 1670 0
20 1680 0
20 1690 0
20 1700 0
20 1710 0
20 1720 0
20 1730 0
20 1740 0
20 1750 0
20 1760 0
20 1770 0
20 1780 0
20 1790 0
20 1800 0
20 1810 0
20 1820 0
20 1830 0
20 1840 0
20 1850 0
20 1860 0
20 1870 0
20 1880 0
20 1890 0
20 1900 0
20 1910 0
20 1920 0
20 1930 0
20 1940 0
20 1950 0
20 1960 0
20 1970 0
20 1980 0
20 1990 0
20 2000 0
20 2010 0
20 2020 0
20 2030 0
20 2040 0
20 2050 0
20 2060 0
20 2070 0
20 2080 0
20 2090 0
20 2100 0
20 2110 0
20 2120 0
20 2130 0
20 2140 0
20 2150 0
20 2160 0
20 2170 0
20 2180 0
20 2190 0
20 2200 0
20 2210 0
20 2220 0
20 2230 0
20 2240 0
20 2250 0
20 2260 0
20 2270 0
20 2280 0
20 2290 0
20 2300 0
20 2310 0
20 2320 0
20 2330 0
20 2340 0
20 2350 0
20 2360 0
20 2370 0
20 2380 0
20 2390 0
20 2400 0
20 2410 0
20 2420 0
20 2430 0
20 2440 0
20 2450 0
20 2460 0
20 2470 0
20 2480 0
20 2490 0
20 2500 0
20 2510 0
20 2520 0
20 2530 0
20 2540 0
20 2550 0
20 2560 0
20 2570 0
20 2580 0
20 2590 0
20 2600 0
20 2610 0
20 2620 0
20 2630 0
20 2640 0
20 2650 0
20 2660 0
20 2670 0
20 2680 0
20 2690 0
20 2700 0
20 2710 0
20 2720 0
20 2730 0
20 2740 0
20 2750 0
20 2760 0
20 2770 0
20 2780 0
20 2790 0
20 2800 0
20 2810 0
20 2820 0
20 2830 0
20 2840 0
20 2850 0
20 2860 0
20 2870 0
20 2880 0
20 2890 0
20 2900 0
20 2910 0
20 2920 0
20 2930 0
20 2940 0
20 2950 0
20 2960 0
20 2970 0
20 2980 0
20 2990 0
20 3000 0
30 0 0
30 10 0
30 20 0
30 30 0
30 40 0
30 50 0
30 60 0
30 70 0
30 80 0
30 90 0
30 100 0
30 110 0
30 120 0
30 130 0
30 140 0
30 150 0
30 160 0
30 170 0
30 180 0
30 190 0
30 200 0
30 210 0
30 220 0
30 230 0
30 240 0
30 250 0
30 260 0
30 270 0
30 280 0
30 290 0
30 300 0
30 310 0
30 320 0
30 330 0
30 340 0
30 350 0
30 360 0
30 370 0
30 380 0
30 390 0
30 400 0
30 410 0
30 420 0
30 430 0
30 440 0
30 450 0
30 460 0
30 470 0
30 480 0
30 490 0
30 500 0
30 510 0
30 520 0
30 530 0
30 540 0
30 550 0
30 560 0
30 570 0
30 580 0
30 590 0
30 600 0
30 610 0
30 620 0
30 630 0
30 640 0
30 650 0
30 660 0
30 670 0
30 680 0
30 690 0
30 700 0
30 710 0
30 720 0
30 730 0
30 740 0
30 750 0
30 760 0
30 770 0
30 780 0
30 790 0
30 800 0
30 810 0
30 820 0
30 830 0
30 840 0
30 850 0
30 860 0
30 870 0
30 880 0
30 890 0
30 900 0
30 910 0
30 920 0
30 930 0
30 940 0
30 950 0
30 960 0
30 970 0
30 980 0
30 990 0
30 1000 0
30 1010 0
30 1020 0
30 1030 0
30 1040 0
30 1050 0
30 1060 0
30 1070 0
30 1080 0
30 1090 0
30 1100 0
30 1110 0
30 1120 0
30 1130 0
30 1140 0
30 1150 0
30 1160 0
30 1170 0
30 1180 0
30 1190 0
30 1200 0
30 1210 0
30 1220 0
30 1230 0
30 1240 0
30 1250 0
30 1260 0
30 1270 0
30 1280 0
30 1290 0
30 1300 0
30 1310 0
30 1320 0
30 1330 0
30 1340 0
30 1350 0
30 1360 0
30 1370 0
30 1380 0
30 1390 0
30 1400 0
30 1410 0
30 1420 0
30 1430 0
30 1440 0
30 1450 0
30 1460 0
30 1470 0
30 1480 0
30 1490 0
30 1500 0
30 1510 0
30 1520 0
30 1530 0
30 1540 0
30 1550 0
30 1560 0
30 1570 0
30 1580 0
30 1590 0
[...]
POINT_DATA 90601
SCALARS P float
LOOKUP_TABLE default
104.7234
104.7234
104.7603
104.8484
104.9963
105.2031
105.4562
105.7348
106.0146
106.2725
106.4903
106.6555
106.7613
106.8056
106.7897
106.7169
106.5922
106.4209
106.2083
105.9596
105.6798
105.3730
105.0431
104.6936
104.3271
103.9464
103.5534
103.1501
102.7379
102.3183
101.8922
101.4607
101.0245
100.5844
100.1408
99.6944
99.2456
98.7946
98.3418
97.8874
97.4317
96.9749
96.5171
96.0584
95.5990
95.1390
94.6784
94.2174
93.7560
93.2942
92.8321
92.3698
91.9072
91.4444
90.9815
90.5184
90.0551
89.5918
89.1284
88.6649
88.2013
87.7376
87.2739
86.8102
86.3464
85.8825
85.4187
84.9548
84.4909
84.0269
83.5630
83.0990
82.6350
82.1710
81.7070
81.2429
80.7789
80.3149
79.8508
79.3868
78.9227
78.4587
77.9946
77.5305
77.0665
76.6024
76.1383
75.6742
75.2101
74.7461
74.2820
73.8179
73.3538
72.8897
72.4256
71.9616
71.4975
71.0334
70.5693
70.1052
69.6411
69.1770
68.7129
68.2488
67.7847
67.3207
66.8566
66.3925
65.9284
65.4643
65.0002
64.5361
64.0720
63.6079
63.1438
62.6797
62.2156
61.7515
61.2874
60.8233
60.3592
59.8951
59.4310
58.9669
58.5028
58.0387
57.5746
57.1105
56.6464
56.1823
55.7182
55.2541
54.7899
54.3258
53.8617
53.3976
52.9334
52.4693
52.0052
51.5410
51.0769
50.6127
50.1486
49.6844
49.2202
48.7560
48.2919
47.8277
47.3635
46.8992
46.4350
45.9708
45.5066
45.0423
44.5781
44.1138
43.6496
43.1853
42.7210
42.2567
41.7925
41.3282
40.8639
40.3996
39.9354
39.4711
39.0069
38.5427
38.0785
37.6143
37.1502
36.6861
36.2221
35.7582
35.2944
34.8306
34.3670
33.9034
33.4401
32.9769
32.5138
32.0510
31.5885
31.1262
30.6642
30.2025
29.7412
29.2803
28.8198
28.3599
27.9004
27.4416
26.9834
26.5260
26.0693
25.6134
25.1585
24.7045
24.2516
23.7998
23.3493
22.9000
22.4522
22.0059
21.5613
21.1183
20.6772
20.2380
19.8009
19.3660
18.9334
18.5032
18.0756
17.6507
17.2287
16.8097
16.3938
15.9812
15.5720
15.1664
14.7645
14.3664
13.9724
13.5826
13.1971
12.8161
12.4396
12.0680
11.7012
11.3395
10.9829
10.6317
10.2859
9.9456
9.6111
9.2823
8.9595
8.6426
8.3319
8.0274
7.7291
7.4372
7.1518
6.8728
6.6003
6.3345
6.0752
5.8226
5.5767
5.3374
5.1049
4.8789
4.6597
4.4471
4.2411
4.0417
3.8487
3.6623
3.4822
3.3085
3.1410
2.9797
2.8245
2.6752
2.5319
2.3943
2.2623
2.1359
2.0150
1.8993
1.7887
1.6833
1.5827
1.4868
1.3956
1.3089
1.2265
1.1483
1.0742
1.0039
0.9375
0.8746
0.8153
0.7593
0.7066
0.6569
0.6101
0.5662
0.5250
0.4863
0.4501
0.4162
0.3845
0.3550
0.3276
0.3022
0.2790
0.2581
0.2399
0.2255
0.2166
104.7234
104.7234
104.7603
104.8484
104.9963
105.2031
105.4562
105.7348
106.0146
106.2725
106.4903
106.6555
106.7613
106.8056
106.7897
106.7169
106.5922
106.4209
106.2083
105.9596
105.6798
105.3730
105.0431
104.6936
104.3271
103.9464
103.5534
103.1501
102.7379
102.3183
101.8922
101.4607
101.0245
100.5844
100.1408
99.6944
99.2456
98.7946
98.3418
97.8874
97.4317
96.9749
96.5171
96.0584
95.5990
95.1390
94.6784
94.2174
93.7560
93.2942
92.8321
92.3698
91.9072
91.4444
90.9815
90.5184
90.0551
89.5918
89.1284
88.6649
88.2013
87.7376
87.2739
86.8102
86.3464
85.8825
85.4187
84.9548
84.4909
84.0269
83.5630
83.0990
82.6350
82.1710
81.7070
81.2429
80.7789
80.3149
79.8508
79.3868
78.9227
78.4587
77.9946
77.5305
77.0665
76.6024
76.1383
75.6742
75.2101
74.7461
74.2820
73.8179
73.3538
72.8897
72.4256
71.9616
71.4975
71.0334
70.5693
70.1052
69.6411
69.1770
68.7129
68.2488
67.7847
67.3207
66.8566
66.3925
65.9284
65.4643
65.0002
64.5361
64.0720
63.6079
63.1438
62.6797
62.2156
61.7515
61.2874
60.8233
60.3592
59.8951
59.4310
58.9669
58.5028
58.0387
57.5746
57.1105
56.6464
56.1823
55.7182
55.2541
54.7899
54.3258
53.8617
53.3976
52.9334
52.4693
52.0052
51.5410
51.0769
50.6127
50.1486
49.6844
49.2202
48.7560
48.2919
47.8277
47.3635
46.8992
46.4350
45.9708
45.5066
45.0423
44.5781
44.1138
43.6496
43.1853
42.7210
42.2567
41.7925
41.3282
40.8639
40.3996
39.9354
39.4711
39.0069
38.5427
38.0785
37.6143
37.1502
36.6861
36.2221
35.7582
35.2944
34.8306
34.3670
33.9034
33.4401
32.9769
32.5138
32.0510
31.5885
31.1262
30.6642
30.2025
29.7412
29.2803
28.8198
28.3599
27.9004
27.4416
26.9834
26.5260
26.0693
25.6134
25.1585
24.7045
24.2516
23.7998
23.3493
22.9000
22.4522
22.0059
21.5613
21.1183
20.6772
20.2380
19.8009
19.3660
18.9334
18.5032
18.0756
17.6507
17.2287
16.8097
16.3938
15.9812
15.5720
15.1664
14.7645
14.3664
13.9724
13.5826
13.1971
12.8161
12.4396
12.0680
11.7012
11.3395
10.9829
10.6317
10.2859
9.9456
9.6111
9.2823
8.9595
8.6426
8.3319
8.0274
7.7291
7.4372
7.1518
6.8728
6.6003
6.3345
6.0752
5.8226
5.5767
5.3374
5.1049
4.8789
4.6597
4.4471
4.2411
4.0417
3.8487
3.6623
3.4822
3.3085
3.1410
2.9797
2.8245
2.6752
2.5319
2.3943
2.2623
2.1359
2.0150
1.8993
1.7887
1.6833
1.5827
1.4868
1.3956
1.3089
1.2265
1.1483
1.0742
1.0039
0.9375
0.8746
0.8153
0.7593
0.7066
0.6569
0.6101
0.5662
0.5250
0.4863
0.4501
0.4162
0.3845
0.3550
0.3276
0.3022
0.2790
0.2581
0.2399
0.2255
0.2166
105.0146
105.0146
105.0634
105.1790
105.3704
105.6310
105.9378
106.2589
106.5624
106.8232
107.0251
107.1599
107.2258
107.2254
107.1633
107.0457
106.8789
106.6691
106.4221
106.1432
105.8369
105.5073
105.1578
104.7914
104.4105
104.0175
103.6141
103.2019
102.7822
102.3561
101.9245
101.4883
101.0482
100.6047
100.1583
99.7094
99.2584
98.8057
98.3513
97.8956
97.4388
96.9810
96.5224
96.0630
95.6030
95.1424
94.6814
94.2200
93.7582
93.2961
92.8338
92.3712
91.9084
91.4455
90.9824
90.5192
90.0559
89.5924
89.1289
88.6653
88.2017
87.7380
87.2742
86.8104
86.3466
85.8827
85.4189
84.9549
84.4910
84.0270
83.5631
83.0991
82.6351
82.1711
81.7070
81.2430
80.7790
80.3149
79.8509
79.3868
78.9227
78.4587
77.9946
77.5305
77.0665
76.6024
76.1383
75.6742
75.2102
74.7461
74.2820
73.8179
73.3538
72.8897
72.4256
71.9616
71.4975
71.0334
70.5693
70.1052
69.6411
69.1770
68.7129
68.2488
67.7847
67.3207
66.8566
66.3925
65.9284
65.4643
65.0002
64.5361
64.0720
63.6079
63.1438
62.6797
62.2156
61.7515
61.2874
60.8233
60.3592
59.8951
59.4310
58.9669
58.5028
58.0387
57.5746
57.1105
56.6464
56.1823
55.7182
55.2541
54.7899
54.3258
53.8617
53.3976
52.9334
52.4693
52.0052
51.5410
51.0769
50.6127
50.1486
49.6844
49.2202
48.7560
48.2919
47.8277
47.3635
46.8992
46.4350
45.9708
45.5066
45.0423
44.5781
44.1138
43.6496
43.1853
42.7210
42.2567
41.7925
41.3282
40.8639
40.3996
39.9354
39.4711
39.0069
38.5427
38.0785
37.6143
37.1502
36.6861
36.2221
35.7582
35.2944
34.8306
34.3670
33.9034
33.4401
32.9769
32.5138
32.0510
31.5885
31.1262
30.6642
30.2025
29.7412
29.2803
28.8198
28.3599
27.9004
27.4416
26.9834
26.5260
26.0693
25.6134
25.1585
24.7045
24.2516
23.7998
23.3493
22.9000
22.4522
22.0059
21.5613
21.1183
20.6772
20.2380
19.8009
19.3660
18.9334
18.5032
18.0756
17.6507
17.2287
16.8097
16.3938
15.9812
15.5720
15.1664
14.7645
14.3664
13.9724
13.5826
13.1971
12.8161
12.4396
12.0680
11.7012
11.3395
10.9829
10.6317
10.2859
9.9456
9.6111
9.2823
8.9595
8.6426
8.3319
8.0274
7.7291
7.4372
7.1518
6.8728
6.6003
6.3345
6.0752
5.8226
5.5767
5.3374
5.1049
4.8789
4.6597
4.4471
4.2411
4.0417
3.8487
3.6623
3.4822
3.3085
3.1410
2.9797
2.8245
2.6752
2.5319
2.3943
2.2623
2.1359
2.0150
1.8993
1.7887
1.6833
1.5827
1.4868
1.3956
1.3089
1.2265
1.1483
1.0742
1.0039
0.9375
0.8746
0.8153
0.7593
0.7066
0.6569
0.6101
0.5662
0.5250
0.4863
0.4501
0.4162
0.3845
0.3550
0.3276
0.3022
0.2790
0.2581
0.2399
0.2255
0.2166
105.7912
105.7912
105.8766
106.0774
106.4031
106.8277
107.2910
107.7263
108.0830
108.3348
108.4759
108.5132
108.4601
108.3314
108.1410
107.9010
107.6213
107.3098
106.9728
106.6149
106.2402
105.8516
105.4514
105.0417
104.6240
104.1996
103.7695
103.3345
102.8954
102.4529
102.0074
101.5593
101.1090
100.6568
100.2030
99.7479
99.2915
98.8341
98.3758
97.9168
97.4571
96.9968
96.5360
96.0748
95.6132
95.1512
94.6890
94.2266
93.7639
93.3011
92.8381
92.3750
91.9117
91.4483
90.9849
90.5214
90.0578
89.5941
89.1304
88.6666
88.2028
87.7389
87.2751
86.8112
86.3472
85.8833
85.4193
84.9554
84.4914
84.0274
83.5633
83.0993
82.6353
82.1712
81.7072
81.2432
80.7791
80.3150
79.8510
79.3869
78.9228
78.4588
77.9947
77.5306
77.0665
76.6024
76.1384
75.6743
75.2102
74.7461
74.2820
73.8179
73.3538
72.8897
72.4257
71.9616
71.4975
71.0334
70.5693
70.1052
69.6411
69.1770
68.7129
68.2488
67.7847
67.3207
66.8566
66.3925
65.9284
65.4643
65.0002
64.5361
64.0720
63.6079
63.1438
62.6797
62.2156
61.7515
61.2874
60.8233
60.3592
59.8951
59.4310
58.9669
58.5028
58.0387
57.5746
57.1105
56.6464
56.1823
55.7182
55.2541
54.7899
54.3258
53.8617
53.3976
52.9334
52.4693
52.0052
51.5410
51.0769
50.6127
50.1486
49.6844
49.2202
48.7560
48.2919
47.8277
47.3635
46.8992
46.4350
45.9708
45.5066
45.0423
44.5781
44.1138
43.6496
43.1853
42.7210
42.2567
41.7925
41.3282
40.8639
40.3996
39.9354
39.4711
39.0069
38.5427
38.0785
37.6143
37.1502
36.6861
36.2221
35.7582
35.2944
34.8306
34.3670
33.9034
33.4401
32.9769
32.5138
32.0510
31.5885
31.1262
30.6642
30.2025
29.7412
29.2803
28.8198
28.3599
27.9004
27.4416
26.9834
26.5260
26.0693
25.6134
25.1585
24.7045
24.2516
23.7998
23.3493
22.9000
22.4522
22.0059
21.5613
21.1183
20.6772
20.2380
19.8009
19.3660
18.9334
18.5032
18.0756
17.6507
17.2287
16.8097
16.3938
15.9812
15.5720
15.1664
14.7645
14.3664
13.9724
13.5826
13.1971
12.8161
12.4396
12.0680
11.7012
11.3395
10.9829
10.6317
10.2859
9.9456
9.6111
9.2823
8.9595
8.6426
8.3319
8.0274
7.7291
7.4372
7.1518
6.8728
6.6003
6.3345
6.0752
5.8226
5.5767
5.3374
5.1049
4.8789
4.6597
4.4471
4.2411
4.0417
3.8487
3.6623
3.4822
3.3085
3.1410
2.9797
2.8245
2.6752
2.5319
2.3943
2.2623
2.1359
2.0150
1.8993
1.7887
1.6833
1.5827
1.4868
1.3956
1.3089
1.2265
1.1483
1.0742
1.0039
0.9375
0.8746
0.8153
0.7593
0.7066
0.6569
0.6101
0.5662
0.5250
0.4863
0.4501
0.4162
0.3845
0.3550
0.3276
0.3022
0.2790
0.2581
0.2399
0.2255
0.2166
107.3597
107.3597
107.5380
107.9565
108.6257
109.4601
110.2850
110.9458
111.3641
111.5323
111.4842
111.2686
110.9333
110.5181
110.0531
109.5593
109.0510
108.5372
108.0233
107.5122
107.0057
106.5041
106.0075
105.5157
105.0280
104.5441
104.0635
103.5856
103.1100
102.6364
102.1644
101.6938
101.2244
100.7559
100.2881
99.8210
99.3545
98.8883
98.4226
97.9571
97.4918
97.0268
96.5620
96.0972
95.6326
95.1681
94.7037
94.2393
93.7750
93.3107
92.8464
92.3822
91.9180
91.4538
90.9897
90.5255
90.0614
89.5972
89.1331
88.6690
88.2049
87.7408
87.2767
86.8126
86.3485
85.8844
85.4203
84.9562
84.4921
84.0280
83.5639
83.0998
82.6357
82.1716
81.7075
81.2434
80.7793
80.3153
79.8512
79.3871
78.9230
78.4589
77.9948
77.5307
77.0666
76.6025
76.1384
75.6743
75.2102
74.7461
74.2821
73.8180
73.3539
72.8898
72.4257
71.9616
71.4975
71.0334
70.5693
70.1052
69.6411
69.1770
68.7129
68.2488
67.7848
67.3207
66.8566
66.3925
65.9284
65.4643
65.0002
64.5361
64.0720
63.6079
63.1438
62.6797
62.2156
61.7515
61.2874
60.8233
60.3592
59.8951
59.4310
58.9669
58.5028
58.0387
57.5746
57.1105
56.6464
56.1823
55.7182
55.2541
54.7899
54.3258
53.8617
53.3976
52.9334
52.4693
52.0052
51.5410
51.0769
50.6127
50.1486
49.6844
49.2202
48.7560
48.2919
47.8277
47.3635
46.8992
46.4350
45.9708
45.5066
45.0423
44.5781
44.1138
43.6496
43.1853
42.7210
42.2567
41.7925
41.3282
40.8639
40.3996
39.9354
39.4711
39.0069
38.5427
38.0785
37.6143
37.1502
36.6861
36.2221
35.7582
35.2944
34.8306
34.3670
33.9034
33.4401
32.9769
32.5138
32.0510
31.5885
31.1262
30.6642
30.2025
29.7412
29.2803
28.8198
28.3599
27.9004
27.4416
26.9834
26.5260
26.0693
25.6134
25.1585
24.7045
24.2516
23.7998
23.3493
22.9000
22.4522
22.0059
21.5613
21.1183
20.6772
20.2380
19.8009
19.3660
18.9334
18.5032
18.0756
17.6507
17.2287
16.8097
16.3938
15.9812
15.5720
15.1664
14.7645
14.3664
13.9724
13.5826
13.1971
12.8161
12.4396
12.0680
11.7012
11.3395
10.9829
10.6317
10.2859
9.9456
9.6111
9.2823
8.9595
8.6426
8.3319
8.0274
7.7291
7.4372
7.1518
6.8728
6.6003
6.3345
6.0752
5.8226
5.5767
5.3374
5.1049
4.8789
4.6597
4.4471
4.2411
4.0417
3.8487
3.6623
3.4822
3.3085
3.1410
2.9797
2.8245
2.6752
2.5319
2.3943
2.2623
2.1359
2.0150
1.8993
1.7887
1.6833
1.5827
1.4868
1.3956
1.3089
1.2265
1.1483
1.0742
1.0039
0.9375
0.8746
0.8153
0.7593
0.7066
0.6569
0.6101
0.5662
0.5250
0.4863
0.4501
0.4162
0.3845
0.3550
0.3276
0.3022
0.2790
0.2581
0.2399
0.2255
0.2166
110.1870
110.1870
110.5884
111.5378
113.0559
114.8817
116.4718
117.4795
117.8392
117.6542
117.0814
116.2676
115.3263
114.3357
113.3453
112.3839
111.4660
110.5974
109.7784
109.0064
108.2774
107.5865
106.9292
106.3008
105.6973
105.1151
104.5509
104.0021
103.4662
102.9413
102.4257
101.9179
101.4167
100.9210
100.4301
99.9432
99.4597
98.9791
98.5008
98.0247
97.5502
97.0773
96.6056
96.1350
95.6654
95.1965
94.7283
94.2607
93.7935
93.3268
92.8605
92.3944
91.9286
91.4631
90.9977
90.5325
90.0675
89.6026
89.1378
88.6731
88.2084
87.7439
87.2794
86.8150
86.3506
85.8862
85.4219
84.9576
84.4933
84.0291
83.5648
83.1006
82.6364
82.1723
81.7081
81.2439
80.7798
80.3156
79.8515
79.3874
78.9232
78.4591
77.9950
77.5309
77.0668
76.6027
76.1385
75.6744
75.2103
74.7462
74.2821
73.8180
73.3539
72.8898
72.4257
71.9616
71.4975
71.0334
70.5693
70.1052
69.6411
69.1771
68.7130
68.2489
67.7848
67.3207
66.8566
66.3925
65.9284
65.4643
65.0002
64.5361
64.0720
63.6079
63.1438
62.6797
62.2156
61.7515
61.2874
60.8233
60.3592
59.8951
59.4310
58.9669
58.5028
58.0387
57.5746
57.1105
56.6464
56.1823
55.7182
55.2541
54.7899
54.3258
53.8617
53.3976
52.9334
52.4693
52.0052
51.5410
51.0769
50.6127
50.1486
49.6844
49.2202
48.7560
48.2919
47.8277
47.3635
46.8992
46.4350
45.9708
45.5066
45.0423
44.5781
44.1138
43.6496
43.1853
42.7210
42.2567
41.7925
41.3282
40.8639
40.3996
39.9354
39.4711
39.0069
38.5427
38.0785
37.6143
37.1502
36.6861
36.2221
35.7582
35.2944
34.8306
34.3670
33.9034
33.4401
32.9769
32.5138
32.0510
31.5885
31.1262
30.6642
30.2025
29.7412
29.2803
28.8198
28.3599
27.9004
27.4416
26.9834
26.5260
26.0693
25.6134
25.1585
24.7045
24.2516
23.7998
23.3493
22.9000
22.4522
22.0059
21.5613
21.1183
20.6772
20.2380
19.8009
19.3660
18.9334
18.5032
18.0756
17.6507
17.2287
16.8097
16.3938
15.9812
15.5720
15.1664
14.7645
14.3664
13.9724
13.5826
13.1971
12.8161
12.4396
12.0680
11.7012
11.3395
10.9829
10.6317
10.2859
9.9456
9.6111
9.2823
8.9595
8.6426
8.3319
8.0274
7.7291
7.4372
7.1518
6.8728
6.6003
6.3345
6.0752
5.8226
5.5767
5.3374
5.1049
4.8789
4.6597
4.4471
4.2411
4.0417
3.8487
3.6623
3.4822
3.3085
3.1410
2.9797
2.8245
2.6752
2.5319
2.3943
2.2623
2.1359
2.0150
1.8993
1.7887
1.6833
1.5827
1.4868
1.3956
1.3089
1.2265
1.1483
1.0742
1.0039
0.9375
0.8746
0.8153
0.7593
0.7066
0.6569
0.6101
0.5662
0.5250
0.4863
0.4501
0.4162
0.3845
0.3550
0.3276
0.3022
0.2790
0.2581
0.2399
0.2255
0.2166
114.9403
114.9403
115.8597
118.0821
121.7127
125.9919
129.0683
130.3218
130.0204
128.6901
126.8005
124.6817
122.5374
120.4801
118.5645
116.8105
115.2184
113.7786
112.4766
111.2965
110.2227
109.2406
108.3369
107.5000
106.7200
105.9881
105.2969
104.6402
104.0126
103.4095
102.8274
102.2628
101.7131
101.1760
100.6496
100.1324
99.6228
99.1198
98.6224
98.1297
97.6411
97.1560
96.6738
96.1941
95.7166
95.2409
94.7669
94.2942
93.8227
93.3521
92.8825
92.4136
91.9453
91.4776
91.0104
90.5436
90.0772
89.6110
89.1452
88.6795
88.2141
87.7488
87.2837
86.8187
86.3539
85.8891
85.4244
84.9598
84.4953
84.0308
83.5663
83.1019
82.6376
82.1733
81.7090
81.2447
80.7805
80.3162
79.8520
79.3878
78.9236
78.4595
77.9953
77.5312
77.0670
76.6029
76.1387
75.6746
75.2105
74.7464
74.2822
73.8181
73.3540
72.8899
72.4258
71.9617
71.4976
71.0335
70.5694
70.1053
69.6412
69.1771
68.7130
68.2489
67.7848
67.3207
66.8566
66.3925
65.9284
65.4643
65.0002
64.5361
64.0720
63.6079
63.1438
62.6797
62.2156
61.7515
61.2874
60.8233
60.3592
59.8951
59.4310
58.9669
58.5028
58.0387
57.5746
57.1105
56.6464
56.1823
55.7182
55.2541
54.7899
54.3258
53.8617
53.3976
52.9334
52.4693
52.0052
51.5410
51.0769
50.6127
50.1486
49.6844
49.2202
48.7560
48.2919
47.8277
47.3635
46.8992
46.4350
45.9708
45.5066
45.0423
44.5781
44.1138
43.6496
43.1853
42.7210
42.2567
41.7925
41.3282
40.8639
40.3996
39.9354
39.4711
39.0069
38.5427
38.0785
37.6143
37.1502
36.6861
36.2221
35.7582
35.2944
34.8306
34.3670
33.9034
33.4401
32.9769
32.5138
32.0510
31.5885
31.1262
30.6642
30.2025
29.7412
29.2803
28.8198
28.3599
27.9004
27.4416
26.9834
26.5260
26.0693
25.6134
25.1585
24.7045
24.2516
23.7998
23.3493
22.9000
22.4522
22.0059
21.5613
21.1183
20.6772
20.2380
19.8009
19.3660
18.9334
18.5032
18.0756
17.6507
17.2287
16.8097
16.3938
15.9812
15.5720
15.1664
14.7645
14.3664
13.9724
13.5826
13.1971
12.8161
12.4396
12.0680
11.7012
11.3395
10.9829
10.6317
10.2859
9.9456
9.6111
9.2823
8.9595
8.6426
8.3319
8.0274
7.7291
7.4372
7.1518
6.8728
6.6003
6.3345
6.0752
5.8226
5.5767
5.3374
5.1049
4.8789
4.6597
4.4471
4.2411
4.0417
3.8487
3.6623
3.4822
3.3085
3.1410
2.9797
2.8245
2.6752
2.5319
2.3943
2.2623
2.1359
2.0150
1.8993
1.7887
1.6833
1.5827
1.4868
1.3956
1.3089
1.2265
1.1483
1.0742
1.0039
0.9375
0.8746
0.8153
0.7593
0.7066
0.6569
0.6101
0.5662
0.5250
0.4863
0.4501
0.4162
0.3845
0.3550
0.3276
0.3022
0.2790
0.2581
0.2399
0.2255
0.2166
122.4636
122.4636
124.5335
129.7454
138.7376
149.5149
154.8983
155.0145
151.9588
147.4763
142.6131
137.9012
133.5723
129.7011
126.2863
123.2930
120.6743
118.3814
116.3682
114.5935
113.0209
111.6194
110.3623
109.2269
108.1943
107.2483
106.3754
105.5642
104.8050
104.0898
103.4119
102.7656
102.1459
101.5490
100.9713
100.4099
99.8625
99.3270
98.8016
98.2848
97.7754
97.2724
96.7747
96.2817
95.7927
95.3070
94.8243
94.3441
93.8661
93.3900
92.9155
92.4423
91.9704
91.4995
91.0295
90.5603
90.0917
89.6237
89.1563
88.6892
88.2226
87.7562
87.2902
86.8244
86.3588
85.8935
85.4282
84.9632
84.4982
84.0334
83.5686
83.1039
82.6393
82.1748
81.7103
81.2459
80.7815
80.3171
79.8528
79.3885
78.9243
78.4600
77.9958
77.5316
77.0674
76.6032
76.1390
75.6749
75.2107
74.7466
74.2824
73.8183
73.3541
72.8900
72.4259
71.9618
71.4977
71.0336
70.5694
70.1053
69.6412
69.1771
68.7130
68.2489
67.7848
67.3207
66.8566
66.3925
65.9284
65.4643
65.0002
64.5361
64.0720
63.6079
63.1438
62.6797
62.2156
61.7515
61.2874
60.8233
60.3592
59.8951
59.4310
58.9669
58.5028
58.0387
57.5746
57.1105
56.6464
56.1823
55.7182
55.2541
54.7899
54.3258
53.8617
53.3976
52.9334
52.4693
52.0052
51.5410
51.0769
50.6127
50.1486
49.6844
49.2202
48.7560
48.2919
47.8277
47.3635
46.8992
46.4350
45.9708
45.5066
45.0423
44.5781
44.1138
43.6496
43.1853
42.7210
42.2567
41.7925
41.3282
40.8639
40.3996
39.9354
39.4711
39.0069
38.5427
38.0785
37.6143
37.1502
36.6861
36.2221
35.7582
35.2944
34.8306
34.3670
33.9034
33.4401
32.9769
32.5138
32.0510
31.5885
31.1262
30.6642
30.2025
29.7412
29.2803
28.8198
28.3599
27.9004
27.4416
26.9834
26.5260
26.0693
25.6134
25.1585
24.7045
24.2516
23.7998
23.3493
22.9000
22.4522
22.0059
21.5613
21.1183
20.6772
20.2380
19.8009
19.3660
18.9334
18.5032
18.0756
17.6507
17.2287
16.8097
16.3938
15.9812
15.5720
15.1664
14.7645
14.3664
13.9724
13.5826
13.1971
12.8161
12.4396
12.0680
11.7012
11.3395
10.9829
10.6317
10.2859
9.9456
9.6111
9.2823
8.9595
8.6426
8.3319
8.0274
7.7291
7.4372
7.1518
6.8728
6.6003
6.3345
6.0752
5.8226
5.5767
5.3374
5.1049
4.8789
4.6597
4.4471
4.2411
4.0417
3.8487
3.6623
3.4822
3.3085
3.1410
2.9797
2.8245
2.6752
2.5319
2.3943
2.2623
2.1359
2.0150
1.8993
1.7887
1.6833
1.5827
1.4868
1.3956
1.3089
1.2265
1.1483
1.0742
1.0039
0.9375
0.8746
0.8153
0.7593
0.7066
0.6569
0.6101
0.5662
0.5250
0.4863
0.4501
0.4162
0.3845
0.3550
0.3276
0.3022
0.2790
0.2581
0.2399
0.2255
0.2166
133.5648
133.5648
137.9905
149.8893
172.7023
203.0142
208.3947
200.7498
189.0043
177.0855
166.3451
157.0816
149.2196
142.5768
136.9602
132.1964
128.1389
124.6660
121.6780
119.0927
116.8429
114.8730
113.1372
111.5976
110.2225
108.9859
107.8658
106.8439
105.9051
105.0364
104.2272
103.4683
102.7522
102.0724
101.4236
100.8010
100.2009
99.6200
99.0555
98.5050
97.9664
97.4382
96.9187
96.4068
95.9015
95.4017
94.9067
94.4159
93.9286
93.4445
92.9630
92.4838
92.0066
91.5311
91.0571
90.5844
90.1128
89.6422
89.1724
88.7033
88.2349
87.7671
87.2997
86.8327
86.3661
85.8998
85.4338
84.9681
84.5025
84.0371
83.5719
83.1069
82.6419
82.1771
81.7123
81.2476
80.7830
80.3185
79.8540
79.3896
78.9252
78.4608
77.9965
77.5322
77.0679
76.6037
76.1394
75.6752
75.2110
74.7468
74.2827
73.8185
73.3544
72.8902
72.4261
71.9619
71.4978
71.0337
70.5695
70.1054
69.6413
69.1772
68.7131
68.2490
67.7849
67.3208
66.8567
66.3926
65.9284
65.4643
65.0002
64.5361
64.0720