# vtk DataFile Version 5.0
Example 3D regular grid VTK file.
ASCII
DATASET UNSTRUCTURED_GRID
POINTS 90601 float
0 0 0
0 10 0
0 20 0
0 30 0
0 40 0
0 50 0
0 60 0
0 70 0
0 80 0
0 90 0
0 100 0
0 110 0
0 120 0
0 130 0
0 140 0
0 150 0
0 160 0
0 170 0
0 180 0
0 190 0
0 200 0
0 210 0
0 220 0
0 230 0
0 240 0
0 250 0
0 260 0
0 270 0
0 280 0
0 290 0
0 300 0
0 310 0
0 320 0
0 330 0
0 340 0
0 350 0
0 360 0
0 370 0
0 380 0
0 390 0
0 400 0
0 410 0
0 420 0
0 430 0
0 440 0
0 450 0
0 460 0
0 470 0
0 480 0
0 490 0
0 500 0
0 510 0
0 520 0
0 530 0
0 540 0
0 550 0
0 560 0
0 570 0
0 580 0
0 590 0
0 600 0
0 610 0
0 620 0
0 630 0
0 640 0
0 650 0
0 660 0
0 670 0
0 680 0
0 690 0
0 700 0
0 710 0
0 720 0
0 730 0
0 740 0
0 750 0
0 760 0
0 770 0
0 780 0
0 790 0
0 800 0
0 810 0
0 820 0
0 830 0
0 840 0
0 850 0
0 860 0
0 870 0
0 880 0
0 890 0
0 900 0
0 910 0
0 920 0
0 930 0
0 940 0
0 950 0
0 960 0
0 970 0
0 980 0
0 990 0
0 1000 0
0 1010 0
0 1020 0
0 1030 0
0 1040 0
0 1050 0
0 1060 0
0 1070 0
0 1080 0
0 1090 0
0 1100 0
0 1110 0
0 1120 0
0 1130 0
0 1140 0
0 1150 0
0 1160 0
0 1170 0
0 1180 0
0 1190 0
0 1200 0
0 1210 0
0 1220 0
0 1230 0
0 1240 0
0 1250 0
0 1260 0
0 1270 0
0 1280 0
0 1290 0
0 1300 0
0 1310 0
0 1320 0
0 1330 0
0 1340 0
0 1350 0
0 1360 0
0 1370 0
0 1380 0
0 1390 0
0 1400 0
0 1410 0
0 1420 0
0 1430 0
0 1440 0
0 1450 0
0 1460 0
0 1470 0
0 1480 0
0 1490 0
0 1500 0
0 1510 0
0 1520 0
0 1530 0
0 1540 0
0 1550 0
0 1560 0
0 1570 0
0 1580 0
0 1590 0
0 1600 0
0 1610 0
0 1620 0
0 1630 0
0 1640 0
0 1650 0
0 1660 0
0 1670 0
0 1680 0
0 1690 0
0 1700 0
0 1710 0
0 1720 0
0 1730 0
0 1740 0
0 1750 0
0 1760 0
0 1770 0
0 1780 0
0 1790 0
0 1800 0
0 1810 0
0 1820 0
0 1830 0
0 1840 0
0 1850 0
0 1860 0
0 1870 0
0 1880 0
0 1890 0
0 1900 0
0 1910 0
0 1920 0
0 1930 0
0 1940 0
0 1950 0
0 1960 0
0 1970 0
0 1980 0
0 1990 0
0 2000 0
0 2010 0
0 2020 0
0 2030 0
0 2040 0
0 2050 0
0 2060 0
0 2070 0
0 2080 0
0 2090 0
0 2100 0
0 2110 0
0 2120 0
0 2130 0
0 2140 0
0 2150 0
0 2160 0
0 2170 0
0 2180 0
0 2190 0
0 2200 0
0 2210 0
0 2220 0
0 2230 0
0 2240 0
0 2250 0
0 2260 0
0 2270 0
0 2280 0
0 2290 0
0 2300 0
0 2310 0
0 2320 0
0 2330 0
0 2340 0
0 2350 0
0 2360 0
0 2370 0
0 2380 0
0 2390 0
0 2400 0
0 2410 0
0 2420 0
0 2430 0
0 2440 0
0 2450 0
0 2460 0
0 2470 0
0 2480 0
0 2490 0
0 2500 0
0 2510 0
0 2520 0
0 2530 0
0 2540 0
0 2550 0
0 2560 0
0 2570 0
0 2580 0
0 2590 0
0 2600 0
0 2610 0
0 2620 0
0 2630 0
0 2640 0
0 2650 0
0 2660 0
0 2670 0
0 2680 0
0 2690 0
0 2700 0
0 2710 0
0 2720 0
0 2730 0
0 2740 0
0 2750 0
0 2760 0
0 2770 0
0 2780 0
0 2790 0
0 2800 0
0 2810 0
0 2820 0
0 2830 0
0 2840 0
0 2850 0
0 2860 0
0 2870 0
0 2880 0
0 2890 0
0 2900 0
0 2910 0
0 2920 0
0 2930 0
0 2940 0
0 2950 0
0 2960 0
0 2970 0
0 2980 0
0 2990 0
0 3000 0
10 0 0
10 10 0
10 20 0
10 30 0
10 40 0
10 50 0
10 60 0
10 70 0
10 80 0
10 90 0
10 100 0
10 110 0
10 120 0
10 130 0
10 140 0
10 150 0
10 160 0
10 170 0
10 180 0
10 190 0
10 200 0
10 210 0
10 220 0
10 230 0
10 240 0
10 250 0
10 260 0
10 270 0
10 280 0
10 290 0
10 300 0
10 310 0
10 320 0
10 330 0
10 340 0
10 350 0
10 360 0
10 370 0
10 380 0
10 390 0
10 400 0
10 410 0
10 420 0
10 430 0
10 440 0
10 450 0
10 460 0
10 470 0
10 480 0
10 490 0
10 500 0
10 510 0
10 520 0
10 530 0
10 540 0
10 550 0
10 560 0
10 570 0
10 580 0
10 590 0
10 600 0
10 610 0
10 620 0
10 630 0
10 640 0
10 650 0
10 660 0
10 670 0
10 680 0
10 690 0
10 700 0
10 710 0
10 720 0
10 730 0
10 740 0
10 750 0
10 760 0
10 770 0
10 780 0
10 790 0
10 800 0
10 810 0
10 820 0
10 830 0
10 840 0
10 850 0
10 860 0
10 870 0
10 880 0
10 890 0
10 900 0
10 910 0
10 920 0
10 930 0
10 940 0
10 950 0
10 960 0
10 970 0
10 980 0
10 990 0
10 1000 0
10 1010 0
10 1020 0
10 1030 0
10 1040 0
10 1050 0
10 1060 0
10 1070 0
10 1080 0
10 1090 0
10 1100 0
10 1110 0
10 1120 0
10 1130 0
10 1140 0
10 1150 0
10 1160 0
10 1170 0
10 1180 0
10 1190 0
10 1200 0
10 1210 0
10 1220 0
10 1230 0
10 1240 0
10 1250 0
10 1260 0
10 1270 0
10 1280 0
10 1290 0
10 1300 0
10 1310 0
10 1320 0
10 1330 0
10 1340 0
10 1350 0
10 1360 0
10 1370 0
10 1380 0
10 1390 0
10 1400 0
10 1410 0
10 1420 0
10 1430 0
10 1440 0
10 1450 0
10 1460 0
10 1470 0
10 1480 0
10 1490 0
10 1500 0
10 1510 0
10 1520 0
10 1530 0
10 1540 0
10 1550 0
10 1560 0
10 1570 0
10 1580 0
10 1590 0
10 1600 0
10 1610 0
10 1620 0
10 1630 0
10 1640 0
10 1650 0
10 1660 0
10 1670 0
10 1680 0
10 1690 0
10 1700 0
10 1710 0
10 1720 0
10 1730 0
10 1740 0
10 1750 0
10 1760 0
10 1770 0
10 1780 0
10 1790 0
10 1800 0
10 1810 0
10 1820 0
10 1830 0
10 1840 0
10 1850 0
10 1860 0
10 1870 0
10 1880 0
10 1890 0
10 1900 0
10 1910 0
10 1920 0
10 1930 0
10 1940 0
10 1950 0
10 1960 0
10 1970 0
10 1980 0
10 1990 0
10 2000 0
10 2010 0
10 2020 0
10 2030 0
10 2040 0
10 2050 0
10 2060 0
10 2070 0
10 2080 0
10 2090 0
10 2100 0
10 2110 0
10 2120 0
10 2130 0
10 2140 0
10 2150 0
10 2160 0
10 2170 0
10 2180 0
10 2190 0
10 2200 0
10 2210 0
10 2220 0
10 2230 0
10 2240 0
10 2250 0
10 2260 0
10 2270 0
10 2280 0
10 2290 0
10 2300 0
10 2310 0
10 2320 0
10 2330 0
10 2340 0
10 2350 0
10 2360 0
10 2370 0
10 2380 0
10 2390 0
10 2400 0
10 2410 0
10 2420 0
10 2430 0
10 2440 0
10 2450 0
10 2460 0
10 2470 0
10 2480 0
10 2490 0
10 2500 0
10 2510 0
10 2520 0
10 2530 0
10 2540 0
10 2550 0
10 2560 0
10 2570 0
10 2580 0
10 2590 0
10 2600 0
10 2610 0
10 2620 0
10 2630 0
10 2640 0
10 2650 0
10 2660 0
10 2670 0
10 2680 0
10 2690 0
10 2700 0
10 2710 0
10 2720 0
10 2730 0
10 2740 0
10 2750 0
10 2760 0
10 2770 0
10 2780 0
10 2790 0
10 2800 0
10 2810 0
10 2820 0
10 2830 0
10 2840 0
10 2850 0
10 2860 0
10 2870 0
10 2880 0
10 2890 0
10 2900 0
10 2910 0
10 2920 0
10 2930 0
10 2940 0
10 2950 0
10 2960 0
10 2970 0
10 2980 0
10 2990 0
10 3000 0
20 0 0
20 10 0
20 20 0
20 30 0
20 40 0
20 50 0
20 60 0
20 70 0
20 80 0
20 90 0
20 100 0
20 110 0
20 120 0
20 130 0
20 140 0
20 150 0
20 160 0
20 170 0
20 180 0
20 190 0
20 200 0
20 210 0
20 220 0
20 230 0
20 240 0
20 250 0
20 260 0
20 270 0
20 280 0
20 290 0
20 300 0
20 310 0
20 320 0
20 330 0
20 340 0
20 350 0
20 360 0
20 370 0
20 380 0
20 390 0
20 400 0
20 410 0
20 420 0
20 430 0
20 440 0
20 450 0
20 460 0
20 470 0
20 480 0
20 490 0
20 500 0
20 510 0
20 520 0
20 530 0
20 540 0
20 550 0
20 560 0
20 570 0
20 580 0
20 590 0
20 600 0
20 610 0
20 620 0
20 630 0
20 640 0
20 650 0
20 660 0
20 670 0
20 680 0
20 690 0
20 700 0
20 710 0
20 720 0
20 730 0
20 740 0
20 750 0
20 760 0
20 770 0
20 780 0
20 790 0
20 800 0
20 810 0
20 820 0
20 830 0
20 840 0
20 850 0
20 860 0
20 870 0
20 880 0
20 890 0
20 900 0
20 910 0
20 920 0
20 930 0
20 940 0
20 950 0
20 960 0
20 970 0
20 980 0
20 990 0
20 1000 0
20 1010 0
20 1020 0
20 1030 0
20 1040 0
20 1050 0
20 1060 0
20 1070 0
20 1080 0
20 1090 0
20 1100 0
20 1110 0
20 1120 0
20 1130 0
20 1140 0
20 1150 0
20 1160 0
20 1170 0
20 1180 0
20 1190 0
20 1200 0
20 1210 0
20 1220 0
20 1230 0
20 1240 0
20 1250 0
20 1260 0
20 1270 0
20 1280 0
20 1290 0
20 1300 0
20 1310 0
20 1320 0
20 1330 0
20 1340 0
20 1350 0
20 1360 0
20 1370 0
20 1380 0
20 1390 0
20 1400 0
20 1410 0
20 1420 0
20 1430 0
20 1440 0
20 1450 0
20 1460 0
20 1470 0
20 1480 0
20 1490 0
20 1500 0
20 1510 0
20 1520 0
20 1530 0
20 1540 0
20 1550 0
20 1560 0
20 1570 0
20 1580 0
20 1590 0
20 1600 0
20 1610 0
20 1620 0
20 1630 0
20 1640 0
20 1650 0
20 1660 0
20 1670 0
20 1680 0
20 1690 0
20 1700 0
20 1710 0
20 1720 0
20 1730 0
20 1740 0
20 1750 0
20 1760 0
20 1770 0
20 1780 0
20 1790 0
20 1800 0
20 1810 0
20 1820 0
20 1830 0
20 1840 0
20 1850 0
20 1860 0
20 1870 0
20 1880 0
20 1890 0
20 1900 0
20 1910 0
20 1920 0
20 1930 0
20 1940 0
20 1950 0
20 1960 0
20 1970 0
20 1980 0
20 1990 0
20 2000 0
20 2010 0
20 2020 0
20 2030 0
20 2040 0
20 2050 0
20 2060 0
20 2070 0
20 2080 0
20 2090 0
20 2100 0
20 2110 0
20 2120 0
20 2130 0
20 2140 0
20 2150 0
20 2160 0
20 2170 0
20 2180 0
20 2190 0
20 2200 0
20 2210 0
20 2220 0
20 2230 0
20 2240 0
20 2250 0
20 2260 0
20 2270 0
20 2280 0
20 2290 0
20 2300 0
20 2310 0
20 2320 0
20 2330 0
20 2340 0
20 2350 0
20 2360 0
20 2370 0
20 2380 0
20 2390 0
20 2400 0
20 2410 0
20 2420 0
20 2430 0
20 2440 0
20 2450 0
20 2460 0
20 2470 0
20 2480 0
20 2490 0
20 2500 0
20 2510 0
20 2520 0
20 2530 0
20 2540 0
20 2550 0
20 2560 0
20 2570 0
20 2580 0
20 2590 0
20 2600 0
20 2610 0
20 2620 0
20 2630 0
20 2640 0
20 2650 0
20 2660 0
20 2670 0
20 2680 0
20 2690 0
20 2700 0
20 2710 0
20 2720 0
20 2730 0
20 2740 0
20 2750 0
20 2760 0
20 2770 0
20 2780 0
20 2790 0
20 2800 0
20 2810 0
20 2820 0
20 2830 0
20 2840 0
20 2850 0
20 2860 0
20 2870 0
20 2880 0
20 2890 0
20 2900 0
20 2910 0
20 2920 0
20 2930 0
20 2940 0
20 2950 0
20 2960 0
20 2970 0
20 2980 0
20 2990 0
20 3000 0
30 0 0
30 10 0
30 20 0
30 30 0
30 40 0
30 50 0
30 60 0
30 70 0
30 80 0
30 90 0
30 100 0
30 110 0
30 120 0
30 130 0
30 140 0
30 150 0
30 160 0
30 170 0
30 180 0
30 190 0
30 200 0
30 210 0
30 220 0
30 230 0
30 240 0
30 250 0
30 260 0
30 270 0
30 280 0
30 290 0
30 300 0
30 310 0
30 320 0
30 330 0
30 340 0
30 350 0
30 360 0
30 370 0
30 380 0
30 390 0
30 400 0
30 410 0
30 420 0
30 430 0
30 440 0
30 450 0
30 460 0
30 470 0
30 480 0
30 490 0
30 500 0
30 510 0
30 520 0
30 530 0
30 540 0
30 550 0
30 560 0
30 570 0
30 580 0
30 590 0
30 600 0
30 610 0
30 620 0
30 630 0
30 640 0
30 650 0
30 660 0
30 670 0
30 680 0
30 690 0
30 700 0
30 710 0
30 720 0
30 730 0
30 740 0
30 750 0
30 760 0
30 770 0
30 780 0
30 790 0
30 800 0
30 810 0
30 820 0
30 830 0
30 840 0
30 850 0
30 860 0
30 870 0
30 880 0
30 890 0
30 900 0
30 910 0
30 920 0
30 930 0
30 940 0
30 950 0
30 960 0
30 970 0
30 980 0
30 990 0
30 1000 0
30 1010 0
30 1020 0
30 1030 0
30 1040 0
30 1050 0
30 1060 0
30 1070 0
30 1080 0
30 1090 0
30 1100 0
30 1110 0
30 1120 0
30 1130 0
30 1140 0
30 1150 0
30 1160 0
30 1170 0
30 1180 0
30 1190 0
30 1200 0
30 1210 0
30 1220 0
30 1230 0
30 1240 0
30 1250 0
30 1260 0
30 1270 0
30 1280 0
30 1290 0
30 1300 0
30 1310 0
30 1320 0
30 1330 0
30 1340 0
30 1350 0
30 1360 0
30 1370 0
30 1380 0
30 1390 0
30 1400 0
30 1410 0
30 1420 0
30 1430 0
30 1440 0
30 1450 0
30 1460 0
30 1470 0
30 1480 0
30 1490 0
30 1500 0
30 1510 0
30 1520 0
30 1530 0
30 1540 0
30 1550 0
30 1560 0
30 1570 0
30 1580 0
30 1590 0
[...]
POINT_DATA 90601
SCALARS P float
LOOKUP_TABLE default
109.4347
109.4347
109.4716
109.5597
109.7076
109.9144
110.1675
110.4461
110.7259
110.9838
111.2016
111.3668
111.4726
111.5169
111.5010
111.4282
111.3035
111.1322
110.9196
110.6709
110.3911
110.0843
109.7544
109.4049
109.0384
108.6577
108.2647
107.8614
107.4492
107.0296
106.6035
106.1720
105.7358
105.2957
104.8522
104.4057
103.9569
103.5059
103.0531
102.5987
102.1430
101.6862
101.2284
100.7697
100.3103
99.8503
99.3898
98.9287
98.4673
98.0055
97.5434
97.0811
96.6185
96.1557
95.6928
95.2297
94.7664
94.3031
93.8397
93.3762
92.9126
92.4489
91.9852
91.5215
91.0577
90.5938
90.1300
89.6661
89.2022
88.7382
88.2743
87.8103
87.3463
86.8823
86.4183
85.9543
85.4902
85.0262
84.5621
84.0981
83.6340
83.1700
82.7059
82.2418
81.7778
81.3137
80.8496
80.3855
79.9215
79.4574
78.9933
78.5292
78.0651
77.6010
77.1369
76.6729
76.2088
75.7447
75.2806
74.8165
74.3524
73.8883
73.4242
72.9601
72.4961
72.0320
71.5679
71.1038
70.6397
70.1756
69.7115
69.2474
68.7833
68.3192
67.8551
67.3910
66.9269
66.4629
65.9988
65.5347
65.0706
64.6065
64.1424
63.6783
63.2142
62.7501
62.2860
61.8219
61.3578
60.8937
60.4296
59.9655
59.5014
59.0373
58.5732
58.1091
57.6450
57.1809
56.7167
56.2526
55.7885
55.3244
54.8603
54.3961
53.9320
53.4679
53.0037
52.5396
52.0755
51.6113
51.1472
50.6830
50.2188
49.7547
49.2905
48.8263
48.3621
47.8979
47.4337
46.9695
46.5053
46.0411
45.5768
45.1126
44.6484
44.1841
43.7199
43.2556
42.7914
42.3272
41.8629
41.3987
40.9345
40.4703
40.0061
39.5419
39.0778
38.6137
38.1496
37.6856
37.2217
36.7578
36.2940
35.8303
35.3667
34.9033
34.4399
33.9768
33.5138
33.0510
32.5884
32.1261
31.6640
31.2023
30.7409
30.2799
29.8193
29.3591
28.8995
28.4404
27.9818
27.5240
27.0668
26.6105
26.1549
25.7003
25.2466
24.7939
24.3424
23.8921
23.4431
22.9955
22.5493
22.1047
21.6618
21.2207
20.7814
20.3442
19.9090
19.4761
19.0456
18.6175
18.1921
17.7694
17.3496
16.9327
16.5191
16.1087
15.7017
15.2983
14.8986
14.5028
14.1110
13.7233
13.3398
12.9608
12.5864
12.2166
11.8517
11.4918
11.1369
10.7872
10.4429
10.1041
9.7708
9.4432
9.1214
8.8054
8.4954
8.1915
7.8937
7.6022
7.3168
7.0379
6.7653
6.4991
6.2394
5.9862
5.7395
5.4993
5.2656
5.0385
4.8178
4.6037
4.3960
4.1947
3.9998
3.8112
3.6289
3.4528
3.2829
3.1190
2.9611
2.8091
2.6628
2.5223
2.3874
2.2579
2.1338
2.0149
1.9012
1.7924
1.6886
1.5895
1.4949
1.4049
1.3192
1.2378
1.1604
1.0869
1.0173
0.9514
0.8891
0.8304
0.7751
0.7234
0.6756
0.6321
0.5941
0.5637
0.5449
109.4347
109.4347
109.4716
109.5597
109.7076
109.9144
110.1675
110.4461
110.7259
110.9838
111.2016
111.3668
111.4726
111.5169
111.5010
111.4282
111.3035
111.1322
110.9196
110.6709
110.3911
110.0843
109.7544
109.4049
109.0384
108.6577
108.2647
107.8614
107.4492
107.0296
106.6035
106.1720
105.7358
105.2957
104.8522
104.4057
103.9569
103.5059
103.0531
102.5987
102.1430
101.6862
101.2284
100.7697
100.3103
99.8503
99.3898
98.9287
98.4673
98.0055
97.5434
97.0811
96.6185
96.1557
95.6928
95.2297
94.7664
94.3031
93.8397
93.3762
92.9126
92.4489
91.9852
91.5215
91.0577
90.5938
90.1300
89.6661
89.2022
88.7382
88.2743
87.8103
87.3463
86.8823
86.4183
85.9543
85.4902
85.0262
84.5621
84.0981
83.6340
83.1700
82.7059
82.2418
81.7778
81.3137
80.8496
80.3855
79.9215
79.4574
78.9933
78.5292
78.0651
77.6010
77.1369
76.6729
76.2088
75.7447
75.2806
74.8165
74.3524
73.8883
73.4242
72.9601
72.4961
72.0320
71.5679
71.1038
70.6397
70.1756
69.7115
69.2474
68.7833
68.3192
67.8551
67.3910
66.9269
66.4629
65.9988
65.5347
65.0706
64.6065
64.1424
63.6783
63.2142
62.7501
62.2860
61.8219
61.3578
60.8937
60.4296
59.9655
59.5014
59.0373
58.5732
58.1091
57.6450
57.1809
56.7167
56.2526
55.7885
55.3244
54.8603
54.3961
53.9320
53.4679
53.0037
52.5396
52.0755
51.6113
51.1472
50.6830
50.2188
49.7547
49.2905
48.8263
48.3621
47.8979
47.4337
46.9695
46.5053
46.0411
45.5768
45.1126
44.6484
44.1841
43.7199
43.2556
42.7914
42.3272
41.8629
41.3987
40.9345
40.4703
40.0061
39.5419
39.0778
38.6137
38.1496
37.6856
37.2217
36.7578
36.2940
35.8303
35.3667
34.9033
34.4399
33.9768
33.5138
33.0510
32.5884
32.1261
31.6640
31.2023
30.7409
30.2799
29.8193
29.3591
28.8995
28.4404
27.9818
27.5240
27.0668
26.6105
26.1549
25.7003
25.2466
24.7939
24.3424
23.8921
23.4431
22.9955
22.5493
22.1047
21.6618
21.2207
20.7814
20.3442
19.9090
19.4761
19.0456
18.6175
18.1921
17.7694
17.3496
16.9327
16.5191
16.1087
15.7017
15.2983
14.8986
14.5028
14.1110
13.7233
13.3398
12.9608
12.5864
12.2166
11.8517
11.4918
11.1369
10.7872
10.4429
10.1041
9.7708
9.4432
9.1214
8.8054
8.4954
8.1915
7.8937
7.6022
7.3168
7.0379
6.7653
6.4991
6.2394
5.9862
5.7395
5.4993
5.2656
5.0385
4.8178
4.6037
4.3960
4.1947
3.9998
3.8112
3.6289
3.4528
3.2829
3.1190
2.9611
2.8091
2.6628
2.5223
2.3874
2.2579
2.1338
2.0149
1.9012
1.7924
1.6886
1.5895
1.4949
1.4049
1.3192
1.2378
1.1604
1.0869
1.0173
0.9514
0.8891
0.8304
0.7751
0.7234
0.6756
0.6321
0.5941
0.5637
0.5449
109.7259
109.7259
109.7747
109.8903
110.0817
110.3423
110.6491
110.9702
111.2737
111.5345
111.7364
111.8712
111.9372
111.9367
111.8746
111.7570
111.5902
111.3804
111.1334
110.8545
110.5482
110.2186
109.8691
109.5027
109.1219
108.7288
108.3254
107.9132
107.4935
107.0674
106.6358
106.1996
105.7595
105.3160
104.8696
104.4207
103.9698
103.5170
103.0626
102.6070
102.1501
101.6923
101.2337
100.7743
100.3143
99.8537
99.3927
98.9313
98.4695
98.0074
97.5451
97.0825
96.6197
96.1568
95.6937
95.2305
94.7672
94.3038
93.8402
93.3767
92.9130
92.4493
91.9855
91.5218
91.0579
90.5941
90.1302
89.6662
89.2023
88.7383
88.2744
87.8104
87.3464
86.8824
86.4183
85.9543
85.4903
85.0262
84.5622
84.0981
83.6341
83.1700
82.7059
82.2419
81.7778
81.3137
80.8496
80.3855
79.9215
79.4574
78.9933
78.5292
78.0651
77.6010
77.1370
76.6729
76.2088
75.7447
75.2806
74.8165
74.3524
73.8883
73.4242
72.9601
72.4961
72.0320
71.5679
71.1038
70.6397
70.1756
69.7115
69.2474
68.7833
68.3192
67.8551
67.3910
66.9269
66.4629
65.9988
65.5347
65.0706
64.6065
64.1424
63.6783
63.2142
62.7501
62.2860
61.8219
61.3578
60.8937
60.4296
59.9655
59.5014
59.0373
58.5732
58.1091
57.6450
57.1809
56.7167
56.2526
55.7885
55.3244
54.8603
54.3961
53.9320
53.4679
53.0037
52.5396
52.0755
51.6113
51.1472
50.6830
50.2188
49.7547
49.2905
48.8263
48.3621
47.8979
47.4337
46.9695
46.5053
46.0411
45.5768
45.1126
44.6484
44.1841
43.7199
43.2556
42.7914
42.3272
41.8629
41.3987
40.9345
40.4703
40.0061
39.5419
39.0778
38.6137
38.1496
37.6856
37.2217
36.7578
36.2940
35.8303
35.3667
34.9033
34.4399
33.9768
33.5138
33.0510
32.5884
32.1261
31.6640
31.2023
30.7409
30.2799
29.8193
29.3591
28.8995
28.4404
27.9818
27.5240
27.0668
26.6105
26.1549
25.7003
25.2466
24.7939
24.3424
23.8921
23.4431
22.9955
22.5493
22.1047
21.6618
21.2207
20.7814
20.3442
19.9090
19.4761
19.0456
18.6175
18.1921
17.7694
17.3496
16.9327
16.5191
16.1087
15.7017
15.2983
14.8986
14.5028
14.1110
13.7233
13.3398
12.9608
12.5864
12.2166
11.8517
11.4918
11.1369
10.7872
10.4429
10.1041
9.7708
9.4432
9.1214
8.8054
8.4954
8.1915
7.8937
7.6022
7.3168
7.0379
6.7653
6.4991
6.2394
5.9862
5.7395
5.4993
5.2656
5.0385
4.8178
4.6037
4.3960
4.1947
3.9998
3.8112
3.6289
3.4528
3.2829
3.1190
2.9611
2.8091
2.6628
2.5223
2.3874
2.2579
2.1338
2.0149
1.9012
1.7924
1.6886
1.5895
1.4949
1.4049
1.3192
1.2378
1.1604
1.0869
1.0173
0.9514
0.8891
0.8304
0.7751
0.7234
0.6756
0.6321
0.5941
0.5637
0.5449
110.5025
110.5025
110.5879
110.7887
111.1144
111.5390
112.0024
112.4376
112.7943
113.0461
113.1872
113.2245
113.1714
113.0427
112.8523
112.6123
112.3326
112.0212
111.6841
111.3262
110.9515
110.5629
110.1627
109.7530
109.3353
108.9109
108.4808
108.0458
107.6068
107.1642
106.7187
106.2706
105.8203
105.3681
104.9143
104.4592
104.0028
103.5454
103.0871
102.6281
102.1684
101.7081
101.2473
100.7861
100.3245
99.8625
99.4003
98.9379
98.4753
98.0124
97.5494
97.0863
96.6230
96.1597
95.6962
95.2327
94.7691
94.3054
93.8417
93.3779
92.9141
92.4503
91.9864
91.5225
91.0586
90.5946
90.1306
89.6667
89.2027
88.7387
88.2747
87.8106
87.3466
86.8826
86.4185
85.9545
85.4904
85.0263
84.5623
84.0982
83.6341
83.1701
82.7060
82.2419
81.7778
81.3137
80.8497
80.3856
79.9215
79.4574
78.9933
78.5292
78.0651
77.6011
77.1370
76.6729
76.2088
75.7447
75.2806
74.8165
74.3524
73.8883
73.4242
72.9602
72.4961
72.0320
71.5679
71.1038
70.6397
70.1756
69.7115
69.2474
68.7833
68.3192
67.8551
67.3910
66.9269
66.4629
65.9988
65.5347
65.0706
64.6065
64.1424
63.6783
63.2142
62.7501
62.2860
61.8219
61.3578
60.8937
60.4296
59.9655
59.5014
59.0373
58.5732
58.1091
57.6450
57.1809
56.7167
56.2526
55.7885
55.3244
54.8603
54.3961
53.9320
53.4679
53.0037
52.5396
52.0755
51.6113
51.1472
50.6830
50.2188
49.7547
49.2905
48.8263
48.3621
47.8979
47.4337
46.9695
46.5053
46.0411
45.5768
45.1126
44.6484
44.1841
43.7199
43.2556
42.7914
42.3272
41.8629
41.3987
40.9345
40.4703
40.0061
39.5419
39.0778
38.6137
38.1496
37.6856
37.2217
36.7578
36.2940
35.8303
35.3667
34.9033
34.4399
33.9768
33.5138
33.0510
32.5884
32.1261
31.6640
31.2023
30.7409
30.2799
29.8193
29.3591
28.8995
28.4404
27.9818
27.5240
27.0668
26.6105
26.1549
25.7003
25.2466
24.7939
24.3424
23.8921
23.4431
22.9955
22.5493
22.1047
21.6618
21.2207
20.7814
20.3442
19.9090
19.4761
19.0456
18.6175
18.1921
17.7694
17.3496
16.9327
16.5191
16.1087
15.7017
15.2983
14.8986
14.5028
14.1110
13.7233
13.3398
12.9608
12.5864
12.2166
11.8517
11.4918
11.1369
10.7872
10.4429
10.1041
9.7708
9.4432
9.1214
8.8054
8.4954
8.1915
7.8937
7.6022
7.3168
7.0379
6.7653
6.4991
6.2394
5.9862
5.7395
5.4993
5.2656
5.0385
4.8178
4.6037
4.3960
4.1947
3.9998
3.8112
3.6289
3.4528
3.2829
3.1190
2.9611
2.8091
2.6628
2.5223
2.3874
2.2579
2.1338
2.0149
1.9012
1.7924
1.6886
1.5895
1.4949
1.4049
1.3192
1.2378
1.1604
1.0869
1.0173
0.9514
0.8891
0.8304
0.7751
0.7234
0.6756
0.6321
0.5941
0.5637
0.5449
112.0710
112.0710
112.2493
112.6678
113.3370
114.1714
114.9964
115.6571
116.0754
116.2436
116.1955
115.9799
115.6446
115.2294
114.7644
114.2707
113.7624
113.2485
112.7346
112.2235
111.7170
111.2154
110.7188
110.2270
109.7393
109.2554
108.7748
108.2969
107.8213
107.3477
106.8757
106.4052
105.9357
105.4672
104.9994
104.5323
104.0658
103.5996
103.1339
102.6684
102.2032
101.7381
101.2733
100.8085
100.3439
99.8794
99.4150
98.9506
98.4863
98.0220
97.5577
97.0935
96.6293
96.1651
95.7010
95.2368
94.7727
94.3085
93.8444
93.3803
92.9162
92.4521
91.9880
91.5239
91.0598
90.5957
90.1316
89.6675
89.2034
88.7393
88.2752
87.8111
87.3470
86.8829
86.4188
85.9547
85.4907
85.0266
84.5625
84.0984
83.6343
83.1702
82.7061
82.2420
81.7779
81.3138
80.8497
80.3856
79.9215
79.4575
78.9934
78.5293
78.0652
77.6011
77.1370
76.6729
76.2088
75.7447
75.2806
74.8165
74.3524
73.8883
73.4243
72.9602
72.4961
72.0320
71.5679
71.1038
70.6397
70.1756
69.7115
69.2474
68.7833
68.3192
67.8551
67.3910
66.9269
66.4629
65.9988
65.5347
65.0706
64.6065
64.1424
63.6783
63.2142
62.7501
62.2860
61.8219
61.3578
60.8937
60.4296
59.9655
59.5014
59.0373
58.5732
58.1091
57.6450
57.1809
56.7167
56.2526
55.7885
55.3244
54.8603
54.3961
53.9320
53.4679
53.0037
52.5396
52.0755
51.6113
51.1472
50.6830
50.2188
49.7547
49.2905
48.8263
48.3621
47.8979
47.4337
46.9695
46.5053
46.0411
45.5768
45.1126
44.6484
44.1841
43.7199
43.2556
42.7914
42.3272
41.8629
41.3987
40.9345
40.4703
40.0061
39.5419
39.0778
38.6137
38.1496
37.6856
37.2217
36.7578
36.2940
35.8303
35.3667
34.9033
34.4399
33.9768
33.5138
33.0510
32.5884
32.1261
31.6640
31.2023
30.7409
30.2799
29.8193
29.3591
28.8995
28.4404
27.9818
27.5240
27.0668
26.6105
26.1549
25.7003
25.2466
24.7939
24.3424
23.8921
23.4431
22.9955
22.5493
22.1047
21.6618
21.2207
20.7814
20.3442
19.9090
19.4761
19.0456
18.6175
18.1921
17.7694
17.3496
16.9327
16.5191
16.1087
15.7017
15.2983
14.8986
14.5028
14.1110
13.7233
13.3398
12.9608
12.5864
12.2166
11.8517
11.4918
11.1369
10.7872
10.4429
10.1041
9.7708
9.4432
9.1214
8.8054
8.4954
8.1915
7.8937
7.6022
7.3168
7.0379
6.7653
6.4991
6.2394
5.9862
5.7395
5.4993
5.2656
5.0385
4.8178
4.6037
4.3960
4.1947
3.9998
3.8112
3.6289
3.4528
3.2829
3.1190
2.9611
2.8091
2.6628
2.5223
2.3874
2.2579
2.1338
2.0149
1.9012
1.7924
1.6886
1.5895
1.4949
1.4049
1.3192
1.2378
1.1604
1.0869
1.0173
0.9514
0.8891
0.8304
0.7751
0.7234
0.6756
0.6321
0.5941
0.5637
0.5449
114.8983
114.8983
115.2997
116.2491
117.7672
119.5930
121.1831
122.1908
122.5505
122.3655
121.7927
120.9789
120.0376
119.0470
118.0566
117.0952
116.1773
115.3087
114.4897
113.7177
112.9887
112.2978
111.6405
111.0121
110.4086
109.8264
109.2622
108.7134
108.1775
107.6526
107.1370
106.6292
106.1280
105.6323
105.1415
104.6545
104.1710
103.6904
103.2121
102.7360
102.2615
101.7886
101.3169
100.8464
100.3767
99.9078
99.4396
98.9720
98.5048
98.0381
97.5718
97.1057
96.6399
96.1744
95.7090
95.2438
94.7788
94.3139
93.8491
93.3844
92.9198
92.4552
91.9907
91.5263
91.0619
90.5975
90.1332
89.6689
89.2046
88.7404
88.2761
87.8119
87.3477
86.8836
86.4194
85.9552
85.4911
85.0269
84.5628
84.0987
83.6345
83.1704
82.7063
82.2422
81.7781
81.3140
80.8498
80.3857
79.9216
79.4575
78.9934
78.5293
78.0652
77.6011
77.1370
76.6729
76.2088
75.7447
75.2806
74.8166
74.3525
73.8884
73.4243
72.9602
72.4961
72.0320
71.5679
71.1038
70.6397
70.1756
69.7115
69.2474
68.7833
68.3192
67.8551
67.3910
66.9269
66.4629
65.9988
65.5347
65.0706
64.6065
64.1424
63.6783
63.2142
62.7501
62.2860
61.8219
61.3578
60.8937
60.4296
59.9655
59.5014
59.0373
58.5732
58.1091
57.6450
57.1809
56.7167
56.2526
55.7885
55.3244
54.8603
54.3961
53.9320
53.4679
53.0037
52.5396
52.0755
51.6113
51.1472
50.6830
50.2188
49.7547
49.2905
48.8263
48.3621
47.8979
47.4337
46.9695
46.5053
46.0411
45.5768
45.1126
44.6484
44.1841
43.7199
43.2556
42.7914
42.3272
41.8629
41.3987
40.9345
40.4703
40.0061
39.5419
39.0778
38.6137
38.1496
37.6856
37.2217
36.7578
36.2940
35.8303
35.3667
34.9033
34.4399
33.9768
33.5138
33.0510
32.5884
32.1261
31.6640
31.2023
30.7409
30.2799
29.8193
29.3591
28.8995
28.4404
27.9818
27.5240
27.0668
26.6105
26.1549
25.7003
25.2466
24.7939
24.3424
23.8921
23.4431
22.9955
22.5493
22.1047
21.6618
21.2207
20.7814
20.3442
19.9090
19.4761
19.0456
18.6175
18.1921
17.7694
17.3496
16.9327
16.5191
16.1087
15.7017
15.2983
14.8986
14.5028
14.1110
13.7233
13.3398
12.9608
12.5864
12.2166
11.8517
11.4918
11.1369
10.7872
10.4429
10.1041
9.7708
9.4432
9.1214
8.8054
8.4954
8.1915
7.8937
7.6022
7.3168
7.0379
6.7653
6.4991
6.2394
5.9862
5.7395
5.4993
5.2656
5.0385
4.8178
4.6037
4.3960
4.1947
3.9998
3.8112
3.6289
3.4528
3.2829
3.1190
2.9611
2.8091
2.6628
2.5223
2.3874
2.2579
2.1338
2.0149
1.9012
1.7924
1.6886
1.5895
1.4949
1.4049
1.3192
1.2378
1.1604
1.0869
1.0173
0.9514
0.8891
0.8304
0.7751
0.7234
0.6756
0.6321
0.5941
0.5637
0.5449
119.6516
119.6516
120.5710
122.7934
126.4240
130.7032
133.7796
135.0331
134.7317
133.4014
131.5118
129.3930
127.2487
125.1914
123.2758
121.5218
119.9297
118.4899
117.1879
116.0078
114.9340
113.9519
113.0482
112.2113
111.4313
110.6994
110.0082
109.3515
108.7239
108.1209
107.5387
106.9741
106.4244
105.8873
105.3610
104.8437
104.3341
103.8311
103.3337
102.8410
102.3524
101.8673
101.3851
100.9054
100.4279
99.9522
99.4782
99.0055
98.5340
98.0635
97.5938
97.1249
96.6567
96.1890
95.7217
95.2549
94.7885
94.3223
93.8565
93.3908
92.9254
92.4601
91.9950
91.5300
91.0652
90.6004
90.1357
89.6711
89.2066
88.7421
88.2776
87.8133
87.3489
86.8846
86.4203
85.9560
85.4918
85.0275
84.5633
84.0991
83.6349
83.1708
82.7066
82.2425
81.7783
81.3142
80.8500
80.3859
79.9218
79.4577
78.9935
78.5294
78.0653
77.6012
77.1371
76.6730
76.2089
75.7448
75.2807
74.8166
74.3525
73.8884
73.4243
72.9602
72.4961
72.0320
71.5679
71.1038
70.6397
70.1756
69.7115
69.2474
68.7833
68.3192
67.8551
67.3910
66.9270
66.4629
65.9988
65.5347
65.0706
64.6065
64.1424
63.6783
63.2142
62.7501
62.2860
61.8219
61.3578
60.8937
60.4296
59.9655
59.5014
59.0373
58.5732
58.1091
57.6450
57.1809
56.7167
56.2526
55.7885
55.3244
54.8603
54.3961
53.9320
53.4679
53.0037
52.5396
52.0755
51.6113
51.1472
50.6830
50.2188
49.7547
49.2905
48.8263
48.3621
47.8979
47.4337
46.9695
46.5053
46.0411
45.5768
45.1126
44.6484
44.1841
43.7199
43.2556
42.7914
42.3272
41.8629
41.3987
40.9345
40.4703
40.0061
39.5419
39.0778
38.6137
38.1496
37.6856
37.2217
36.7578
36.2940
35.8303
35.3667
34.9033
34.4399
33.9768
33.5138
33.0510
32.5884
32.1261
31.6640
31.2023
30.7409
30.2799
29.8193
29.3591
28.8995
28.4404
27.9818
27.5240
27.0668
26.6105
26.1549
25.7003
25.2466
24.7939
24.3424
23.8921
23.4431
22.9955
22.5493
22.1047
21.6618
21.2207
20.7814
20.3442
19.9090
19.4761
19.0456
18.6175
18.1921
17.7694
17.3496
16.9327
16.5191
16.1087
15.7017
15.2983
14.8986
14.5028
14.1110
13.7233
13.3398
12.9608
12.5864
12.2166
11.8517
11.4918
11.1369
10.7872
10.4429
10.1041
9.7708
9.4432
9.1214
8.8054
8.4954
8.1915
7.8937
7.6022
7.3168
7.0379
6.7653
6.4991
6.2394
5.9862
5.7395
5.4993
5.2656
5.0385
4.8178
4.6037
4.3960
4.1947
3.9998
3.8112
3.6289
3.4528
3.2829
3.1190
2.9611
2.8091
2.6628
2.5223
2.3874
2.2579
2.1338
2.0149
1.9012
1.7924
1.6886
1.5895
1.4949
1.4049
1.3192
1.2378
1.1604
1.0869
1.0173
0.9514
0.8891
0.8304
0.7751
0.7234
0.6756
0.6321
0.5941
0.5637
0.5449
127.1749
127.1749
129.2448
134.4567
143.4489
154.2262
159.6096
159.7258
156.6701
152.1876
147.3244
142.6125
138.2836
134.4124
130.9976
128.0043
125.3856
123.0927
121.0795
119.3048
117.7322
116.3307
115.0736
113.9382
112.9056
111.9596
111.0867
110.2755
109.5163
108.8012
108.1233
107.4769
106.8572
106.2603
105.6826
105.1212
104.5738
104.0383
103.5129
102.9961
102.4867
101.9837
101.4860
100.9930
100.5040
100.0183
99.5356
99.0555
98.5774
98.1013
97.6268
97.1536
96.6817
96.2108
95.7408
95.2716
94.8030
94.3350
93.8676
93.4005
92.9339
92.4676
92.0015
91.5357
91.0702
90.6048
90.1395
89.6745
89.2095
88.7447
88.2799
87.8152
87.3506
86.8861
86.4216
85.9572
85.4928
85.0285
84.5641
84.0998
83.6356
83.1713
82.7071
82.2429
81.7787
81.3145
80.8503
80.3862
79.9220
79.4579
78.9937
78.5296
78.0655
77.6013
77.1372
76.6731
76.2090
75.7449
75.2808
74.8166
74.3525
73.8884
73.4243
72.9602
72.4961
72.0320
71.5679
71.1038
70.6397
70.1756
69.7115
69.2474
68.7833
68.3192
67.8552
67.3911
66.9270
66.4629
65.9988
65.5347
65.0706
64.6065
64.1424
63.6783
63.2142
62.7501
62.2860
61.8219
61.3578
60.8937
60.4296
59.9655
59.5014
59.0373
58.5732
58.1091
57.6450
57.1809
56.7167
56.2526
55.7885
55.3244
54.8603
54.3961
53.9320
53.4679
53.0037
52.5396
52.0755
51.6113
51.1472
50.6830
50.2188
49.7547
49.2905
48.8263
48.3621
47.8979
47.4337
46.9695
46.5053
46.0411
45.5768
45.1126
44.6484
44.1841
43.7199
43.2556
42.7914
42.3272
41.8629
41.3987
40.9345
40.4703
40.0061
39.5419
39.0778
38.6137
38.1496
37.6856
37.2217
36.7578
36.2940
35.8303
35.3667
34.9033
34.4399
33.9768
33.5138
33.0510
32.5884
32.1261
31.6640
31.2023
30.7409
30.2799
29.8193
29.3591
28.8995
28.4404
27.9818
27.5240
27.0668
26.6105
26.1549
25.7003
25.2466
24.7939
24.3424
23.8921
23.4431
22.9955
22.5493
22.1047
21.6618
21.2207
20.7814
20.3442
19.9090
19.4761
19.0456
18.6175
18.1921
17.7694
17.3496
16.9327
16.5191
16.1087
15.7017
15.2983
14.8986
14.5028
14.1110
13.7233
13.3398
12.9608
12.5864
12.2166
11.8517
11.4918
11.1369
10.7872
10.4429
10.1041
9.7708
9.4432
9.1214
8.8054
8.4954
8.1915
7.8937
7.6022
7.3168
7.0379
6.7653
6.4991
6.2394
5.9862
5.7395
5.4993
5.2656
5.0385
4.8178
4.6037
4.3960
4.1947
3.9998
3.8112
3.6289
3.4528
3.2829
3.1190
2.9611
2.8091
2.6628
2.5223
2.3874
2.2579
2.1338
2.0149
1.9012
1.7924
1.6886
1.5895
1.4949
1.4049
1.3192
1.2378
1.1604
1.0869
1.0173
0.9514
0.8891
0.8304
0.7751
0.7234
0.6756
0.6321
0.5941
0.5637
0.5449
138.2761
138.2761
142.7018
154.6006
177.4136
207.7255
213.1060
205.4611
193.7156
181.7968
171.0564
161.7929
153.9309
147.2881
141.6715
136.9077
132.8502
129.3773
126.3893
123.8040
121.5542
119.5843
117.8485
116.3089
114.9338
113.6972
112.5771
111.5553
110.6164
109.7477
108.9385
108.1796
107.4635
106.7837
106.1349
105.5123
104.9122
104.3313
103.7668
103.2163
102.6777
102.1495
101.6300
101.1181
100.6128
100.1130
99.6180
99.1272
98.6400
98.1558
97.6743
97.1951
96.7179
96.2424
95.7684
95.2957
94.8241
94.3535
93.8837
93.4146
92.9462
92.4784
92.0110
91.5440
91.0774
90.6111
90.1451
89.6794
89.2138
88.7484
88.2832
87.8182
87.3532
86.8884
86.4236
85.9589
85.4943
85.0298
84.5653
84.1009
83.6365
83.1721
82.7078
82.2435
81.7792
81.3150
80.8508
80.3865
79.9223
79.4582
78.9940