# vtk DataFile Version 5.0
Example 3D regular grid VTK file.
ASCII
DATASET UNSTRUCTURED_GRID
POINTS 90601 float
0 0 0
0 10 0
0 20 0
0 30 0
0 40 0
0 50 0
0 60 0
0 70 0
0 80 0
0 90 0
0 100 0
0 110 0
0 120 0
0 130 0
0 140 0
0 150 0
0 160 0
0 170 0
0 180 0
0 190 0
0 200 0
0 210 0
0 220 0
0 230 0
0 240 0
0 250 0
0 260 0
0 270 0
0 280 0
0 290 0
0 300 0
0 310 0
0 320 0
0 330 0
0 340 0
0 350 0
0 360 0
0 370 0
0 380 0
0 390 0
0 400 0
0 410 0
0 420 0
0 430 0
0 440 0
0 450 0
0 460 0
0 470 0
0 480 0
0 490 0
0 500 0
0 510 0
0 520 0
0 530 0
0 540 0
0 550 0
0 560 0
0 570 0
0 580 0
0 590 0
0 600 0
0 610 0
0 620 0
0 630 0
0 640 0
0 650 0
0 660 0
0 670 0
0 680 0
0 690 0
0 700 0
0 710 0
0 720 0
0 730 0
0 740 0
0 750 0
0 760 0
0 770 0
0 780 0
0 790 0
0 800 0
0 810 0
0 820 0
0 830 0
0 840 0
0 850 0
0 860 0
0 870 0
0 880 0
0 890 0
0 900 0
0 910 0
0 920 0
0 930 0
0 940 0
0 950 0
0 960 0
0 970 0
0 980 0
0 990 0
0 1000 0
0 1010 0
0 1020 0
0 1030 0
0 1040 0
0 1050 0
0 1060 0
0 1070 0
0 1080 0
0 1090 0
0 1100 0
0 1110 0
0 1120 0
0 1130 0
0 1140 0
0 1150 0
0 1160 0
0 1170 0
0 1180 0
0 1190 0
0 1200 0
0 1210 0
0 1220 0
0 1230 0
0 1240 0
0 1250 0
0 1260 0
0 1270 0
0 1280 0
0 1290 0
0 1300 0
0 1310 0
0 1320 0
0 1330 0
0 1340 0
0 1350 0
0 1360 0
0 1370 0
0 1380 0
0 1390 0
0 1400 0
0 1410 0
0 1420 0
0 1430 0
0 1440 0
0 1450 0
0 1460 0
0 1470 0
0 1480 0
0 1490 0
0 1500 0
0 1510 0
0 1520 0
0 1530 0
0 1540 0
0 1550 0
0 1560 0
0 1570 0
0 1580 0
0 1590 0
0 1600 0
0 1610 0
0 1620 0
0 1630 0
0 1640 0
0 1650 0
0 1660 0
0 1670 0
0 1680 0
0 1690 0
0 1700 0
0 1710 0
0 1720 0
0 1730 0
0 1740 0
0 1750 0
0 1760 0
0 1770 0
0 1780 0
0 1790 0
0 1800 0
0 1810 0
0 1820 0
0 1830 0
0 1840 0
0 1850 0
0 1860 0
0 1870 0
0 1880 0
0 1890 0
0 1900 0
0 1910 0
0 1920 0
0 1930 0
0 1940 0
0 1950 0
0 1960 0
0 1970 0
0 1980 0
0 1990 0
0 2000 0
0 2010 0
0 2020 0
0 2030 0
0 2040 0
0 2050 0
0 2060 0
0 2070 0
0 2080 0
0 2090 0
0 2100 0
0 2110 0
0 2120 0
0 2130 0
0 2140 0
0 2150 0
0 2160 0
0 2170 0
0 2180 0
0 2190 0
0 2200 0
0 2210 0
0 2220 0
0 2230 0
0 2240 0
0 2250 0
0 2260 0
0 2270 0
0 2280 0
0 2290 0
0 2300 0
0 2310 0
0 2320 0
0 2330 0
0 2340 0
0 2350 0
0 2360 0
0 2370 0
0 2380 0
0 2390 0
0 2400 0
0 2410 0
0 2420 0
0 2430 0
0 2440 0
0 2450 0
0 2460 0
0 2470 0
0 2480 0
0 2490 0
0 2500 0
0 2510 0
0 2520 0
0 2530 0
0 2540 0
0 2550 0
0 2560 0
0 2570 0
0 2580 0
0 2590 0
0 2600 0
0 2610 0
0 2620 0
0 2630 0
0 2640 0
0 2650 0
0 2660 0
0 2670 0
0 2680 0
0 2690 0
0 2700 0
0 2710 0
0 2720 0
0 2730 0
0 2740 0
0 2750 0
0 2760 0
0 2770 0
0 2780 0
0 2790 0
0 2800 0
0 2810 0
0 2820 0
0 2830 0
0 2840 0
0 2850 0
0 2860 0
0 2870 0
0 2880 0
0 2890 0
0 2900 0
0 2910 0
0 2920 0
0 2930 0
0 2940 0
0 2950 0
0 2960 0
0 2970 0
0 2980 0
0 2990 0
0 3000 0
10 0 0
10 10 0
10 20 0
10 30 0
10 40 0
10 50 0
10 60 0
10 70 0
10 80 0
10 90 0
10 100 0
10 110 0
10 120 0
10 130 0
10 140 0
10 150 0
10 160 0
10 170 0
10 180 0
10 190 0
10 200 0
10 210 0
10 220 0
10 230 0
10 240 0
10 250 0
10 260 0
10 270 0
10 280 0
10 290 0
10 300 0
10 310 0
10 320 0
10 330 0
10 340 0
10 350 0
10 360 0
10 370 0
10 380 0
10 390 0
10 400 0
10 410 0
10 420 0
10 430 0
10 440 0
10 450 0
10 460 0
10 470 0
10 480 0
10 490 0
10 500 0
10 510 0
10 520 0
10 530 0
10 540 0
10 550 0
10 560 0
10 570 0
10 580 0
10 590 0
10 600 0
10 610 0
10 620 0
10 630 0
10 640 0
10 650 0
10 660 0
10 670 0
10 680 0
10 690 0
10 700 0
10 710 0
10 720 0
10 730 0
10 740 0
10 750 0
10 760 0
10 770 0
10 780 0
10 790 0
10 800 0
10 810 0
10 820 0
10 830 0
10 840 0
10 850 0
10 860 0
10 870 0
10 880 0
10 890 0
10 900 0
10 910 0
10 920 0
10 930 0
10 940 0
10 950 0
10 960 0
10 970 0
10 980 0
10 990 0
10 1000 0
10 1010 0
10 1020 0
10 1030 0
10 1040 0
10 1050 0
10 1060 0
10 1070 0
10 1080 0
10 1090 0
10 1100 0
10 1110 0
10 1120 0
10 1130 0
10 1140 0
10 1150 0
10 1160 0
10 1170 0
10 1180 0
10 1190 0
10 1200 0
10 1210 0
10 1220 0
10 1230 0
10 1240 0
10 1250 0
10 1260 0
10 1270 0
10 1280 0
10 1290 0
10 1300 0
10 1310 0
10 1320 0
10 1330 0
10 1340 0
10 1350 0
10 1360 0
10 1370 0
10 1380 0
10 1390 0
10 1400 0
10 1410 0
10 1420 0
10 1430 0
10 1440 0
10 1450 0
10 1460 0
10 1470 0
10 1480 0
10 1490 0
10 1500 0
10 1510 0
10 1520 0
10 1530 0
10 1540 0
10 1550 0
10 1560 0
10 1570 0
10 1580 0
10 1590 0
10 1600 0
10 1610 0
10 1620 0
10 1630 0
10 1640 0
10 1650 0
10 1660 0
10 1670 0
10 1680 0
10 1690 0
10 1700 0
10 1710 0
10 1720 0
10 1730 0
10 1740 0
10 1750 0
10 1760 0
10 1770 0
10 1780 0
10 1790 0
10 1800 0
10 1810 0
10 1820 0
10 1830 0
10 1840 0
10 1850 0
10 1860 0
10 1870 0
10 1880 0
10 1890 0
10 1900 0
10 1910 0
10 1920 0
10 1930 0
10 1940 0
10 1950 0
10 1960 0
10 1970 0
10 1980 0
10 1990 0
10 2000 0
10 2010 0
10 2020 0
10 2030 0
10 2040 0
10 2050 0
10 2060 0
10 2070 0
10 2080 0
10 2090 0
10 2100 0
10 2110 0
10 2120 0
10 2130 0
10 2140 0
10 2150 0
10 2160 0
10 2170 0
10 2180 0
10 2190 0
10 2200 0
10 2210 0
10 2220 0
10 2230 0
10 2240 0
10 2250 0
10 2260 0
10 2270 0
10 2280 0
10 2290 0
10 2300 0
10 2310 0
10 2320 0
10 2330 0
10 2340 0
10 2350 0
10 2360 0
10 2370 0
10 2380 0
10 2390 0
10 2400 0
10 2410 0
10 2420 0
10 2430 0
10 2440 0
10 2450 0
10 2460 0
10 2470 0
10 2480 0
10 2490 0
10 2500 0
10 2510 0
10 2520 0
10 2530 0
10 2540 0
10 2550 0
10 2560 0
10 2570 0
10 2580 0
10 2590 0
10 2600 0
10 2610 0
10 2620 0
10 2630 0
10 2640 0
10 2650 0
10 2660 0
10 2670 0
10 2680 0
10 2690 0
10 2700 0
10 2710 0
10 2720 0
10 2730 0
10 2740 0
10 2750 0
10 2760 0
10 2770 0
10 2780 0
10 2790 0
10 2800 0
10 2810 0
10 2820 0
10 2830 0
10 2840 0
10 2850 0
10 2860 0
10 2870 0
10 2880 0
10 2890 0
10 2900 0
10 2910 0
10 2920 0
10 2930 0
10 2940 0
10 2950 0
10 2960 0
10 2970 0
10 2980 0
10 2990 0
10 3000 0
20 0 0
20 10 0
20 20 0
20 30 0
20 40 0
20 50 0
20 60 0
20 70 0
20 80 0
20 90 0
20 100 0
20 110 0
20 120 0
20 130 0
20 140 0
20 150 0
20 160 0
20 170 0
20 180 0
20 190 0
20 200 0
20 210 0
20 220 0
20 230 0
20 240 0
20 250 0
20 260 0
20 270 0
20 280 0
20 290 0
20 300 0
20 310 0
20 320 0
20 330 0
20 340 0
20 350 0
20 360 0
20 370 0
20 380 0
20 390 0
20 400 0
20 410 0
20 420 0
20 430 0
20 440 0
20 450 0
20 460 0
20 470 0
20 480 0
20 490 0
20 500 0
20 510 0
20 520 0
20 530 0
20 540 0
20 550 0
20 560 0
20 570 0
20 580 0
20 590 0
20 600 0
20 610 0
20 620 0
20 630 0
20 640 0
20 650 0
20 660 0
20 670 0
20 680 0
20 690 0
20 700 0
20 710 0
20 720 0
20 730 0
20 740 0
20 750 0
20 760 0
20 770 0
20 780 0
20 790 0
20 800 0
20 810 0
20 820 0
20 830 0
20 840 0
20 850 0
20 860 0
20 870 0
20 880 0
20 890 0
20 900 0
20 910 0
20 920 0
20 930 0
20 940 0
20 950 0
20 960 0
20 970 0
20 980 0
20 990 0
20 1000 0
20 1010 0
20 1020 0
20 1030 0
20 1040 0
20 1050 0
20 1060 0
20 1070 0
20 1080 0
20 1090 0
20 1100 0
20 1110 0
20 1120 0
20 1130 0
20 1140 0
20 1150 0
20 1160 0
20 1170 0
20 1180 0
20 1190 0
20 1200 0
20 1210 0
20 1220 0
20 1230 0
20 1240 0
20 1250 0
20 1260 0
20 1270 0
20 1280 0
20 1290 0
20 1300 0
20 1310 0
20 1320 0
20 1330 0
20 1340 0
20 1350 0
20 1360 0
20 1370 0
20 1380 0
20 1390 0
20 1400 0
20 1410 0
20 1420 0
20 1430 0
20 1440 0
20 1450 0
20 1460 0
20 1470 0
20 1480 0
20 1490 0
20 1500 0
20 1510 0
20 1520 0
20 1530 0
20 1540 0
20 1550 0
20 1560 0
20 1570 0
20 1580 0
20 1590 0
20 1600 0
20 1610 0
20 1620 0
20 1630 0
20 1640 0
20 1650 0
20 1660 0
20 1670 0
20 1680 0
20 1690 0
20 1700 0
20 1710 0
20 1720 0
20 1730 0
20 1740 0
20 1750 0
20 1760 0
20 1770 0
20 1780 0
20 1790 0
20 1800 0
20 1810 0
20 1820 0
20 1830 0
20 1840 0
20 1850 0
20 1860 0
20 1870 0
20 1880 0
20 1890 0
20 1900 0
20 1910 0
20 1920 0
20 1930 0
20 1940 0
20 1950 0
20 1960 0
20 1970 0
20 1980 0
20 1990 0
20 2000 0
20 2010 0
20 2020 0
20 2030 0
20 2040 0
20 2050 0
20 2060 0
20 2070 0
20 2080 0
20 2090 0
20 2100 0
20 2110 0
20 2120 0
20 2130 0
20 2140 0
20 2150 0
20 2160 0
20 2170 0
20 2180 0
20 2190 0
20 2200 0
20 2210 0
20 2220 0
20 2230 0
20 2240 0
20 2250 0
20 2260 0
20 2270 0
20 2280 0
20 2290 0
20 2300 0
20 2310 0
20 2320 0
20 2330 0
20 2340 0
20 2350 0
20 2360 0
20 2370 0
20 2380 0
20 2390 0
20 2400 0
20 2410 0
20 2420 0
20 2430 0
20 2440 0
20 2450 0
20 2460 0
20 2470 0
20 2480 0
20 2490 0
20 2500 0
20 2510 0
20 2520 0
20 2530 0
20 2540 0
20 2550 0
20 2560 0
20 2570 0
20 2580 0
20 2590 0
20 2600 0
20 2610 0
20 2620 0
20 2630 0
20 2640 0
20 2650 0
20 2660 0
20 2670 0
20 2680 0
20 2690 0
20 2700 0
20 2710 0
20 2720 0
20 2730 0
20 2740 0
20 2750 0
20 2760 0
20 2770 0
20 2780 0
20 2790 0
20 2800 0
20 2810 0
20 2820 0
20 2830 0
20 2840 0
20 2850 0
20 2860 0
20 2870 0
20 2880 0
20 2890 0
20 2900 0
20 2910 0
20 2920 0
20 2930 0
20 2940 0
20 2950 0
20 2960 0
20 2970 0
20 2980 0
20 2990 0
20 3000 0
30 0 0
30 10 0
30 20 0
30 30 0
30 40 0
30 50 0
30 60 0
30 70 0
30 80 0
30 90 0
30 100 0
30 110 0
30 120 0
30 130 0
30 140 0
30 150 0
30 160 0
30 170 0
30 180 0
30 190 0
30 200 0
30 210 0
30 220 0
30 230 0
30 240 0
30 250 0
30 260 0
30 270 0
30 280 0
30 290 0
30 300 0
30 310 0
30 320 0
30 330 0
30 340 0
30 350 0
30 360 0
30 370 0
30 380 0
30 390 0
30 400 0
30 410 0
30 420 0
30 430 0
30 440 0
30 450 0
30 460 0
30 470 0
30 480 0
30 490 0
30 500 0
30 510 0
30 520 0
30 530 0
30 540 0
30 550 0
30 560 0
30 570 0
30 580 0
30 590 0
30 600 0
30 610 0
30 620 0
30 630 0
30 640 0
30 650 0
30 660 0
30 670 0
30 680 0
30 690 0
30 700 0
30 710 0
30 720 0
30 730 0
30 740 0
30 750 0
30 760 0
30 770 0
30 780 0
30 790 0
30 800 0
30 810 0
30 820 0
30 830 0
30 840 0
30 850 0
30 860 0
30 870 0
30 880 0
30 890 0
30 900 0
30 910 0
30 920 0
30 930 0
30 940 0
30 950 0
30 960 0
30 970 0
30 980 0
30 990 0
30 1000 0
30 1010 0
30 1020 0
30 1030 0
30 1040 0
30 1050 0
30 1060 0
30 1070 0
30 1080 0
30 1090 0
30 1100 0
30 1110 0
30 1120 0
30 1130 0
30 1140 0
30 1150 0
30 1160 0
30 1170 0
30 1180 0
30 1190 0
30 1200 0
30 1210 0
30 1220 0
30 1230 0
30 1240 0
30 1250 0
30 1260 0
30 1270 0
30 1280 0
30 1290 0
30 1300 0
30 1310 0
30 1320 0
30 1330 0
30 1340 0
30 1350 0
30 1360 0
30 1370 0
30 1380 0
30 1390 0
30 1400 0
30 1410 0
30 1420 0
30 1430 0
30 1440 0
30 1450 0
30 1460 0
30 1470 0
30 1480 0
30 1490 0
30 1500 0
30 1510 0
30 1520 0
30 1530 0
30 1540 0
30 1550 0
30 1560 0
30 1570 0
30 1580 0
30 1590 0
[...]
POINT_DATA 90601
SCALARS P float
LOOKUP_TABLE default
114.1460
114.1460
114.1829
114.2710
114.4189
114.6257
114.8788
115.1574
115.4372
115.6951
115.9129
116.0781
116.1839
116.2282
116.2123
116.1396
116.0148
115.8435
115.6309
115.3822
115.1024
114.7956
114.4658
114.1162
113.7498
113.3690
112.9761
112.5727
112.1606
111.7409
111.3148
110.8833
110.4471
110.0070
109.5635
109.1171
108.6682
108.2172
107.7644
107.3100
106.8544
106.3975
105.9397
105.4810
105.0216
104.5616
104.1011
103.6400
103.1786
102.7168
102.2547
101.7924
101.3298
100.8670
100.4041
99.9410
99.4778
99.0144
98.5510
98.0875
97.6239
97.1602
96.6965
96.2328
95.7690
95.3051
94.8413
94.3774
93.9135
93.4495
92.9856
92.5216
92.0576
91.5936
91.1296
90.6656
90.2015
89.7375
89.2734
88.8094
88.3453
87.8813
87.4172
86.9531
86.4891
86.0250
85.5609
85.0968
84.6328
84.1687
83.7046
83.2405
82.7764
82.3123
81.8483
81.3842
80.9201
80.4560
79.9919
79.5278
79.0637
78.5996
78.1355
77.6715
77.2074
76.7433
76.2792
75.8151
75.3510
74.8869
74.4228
73.9587
73.4946
73.0305
72.5664
72.1023
71.6383
71.1742
70.7101
70.2460
69.7819
69.3178
68.8537
68.3896
67.9255
67.4614
66.9973
66.5332
66.0691
65.6050
65.1409
64.6768
64.2128
63.7487
63.2846
62.8205
62.3564
61.8923
61.4282
60.9641
60.5000
60.0359
59.5717
59.1076
58.6435
58.1794
57.7153
57.2512
56.7871
56.3230
55.8588
55.3947
54.9306
54.4665
54.0023
53.5382
53.0741
52.6099
52.1458
51.6816
51.2175
50.7533
50.2891
49.8249
49.3608
48.8966
48.4324
47.9682
47.5040
47.0398
46.5756
46.1114
45.6472
45.1830
44.7187
44.2545
43.7903
43.3261
42.8619
42.3977
41.9335
41.4694
41.0052
40.5411
40.0770
39.6130
39.1490
38.6850
38.2211
37.7573
37.2936
36.8299
36.3663
35.9029
35.4396
34.9764
34.5134
34.0506
33.5881
33.1257
32.6636
32.2018
31.7403
31.2791
30.8184
30.3580
29.8982
29.4388
28.9800
28.5217
28.0642
27.6073
27.1512
26.6959
26.2415
25.7881
25.3357
24.8844
24.4342
23.9854
23.5379
23.0918
22.6472
22.2043
21.7631
21.3237
20.8863
20.4509
20.0177
19.5868
19.1582
18.7322
18.3088
17.8881
17.4704
17.0557
16.6441
16.2358
15.8310
15.4297
15.0321
14.6383
14.2485
13.8628
13.4813
13.1042
12.7317
12.3637
12.0005
11.6422
11.2889
10.9407
10.5978
10.2602
9.9281
9.6015
9.2807
8.9655
8.6562
8.3529
8.0555
7.7642
7.4791
7.2001
6.9274
6.6609
6.4007
6.1469
5.8995
5.6584
5.4237
5.1953
4.9734
4.7578
4.5484
4.3454
4.1487
3.9581
3.7737
3.5954
3.4231
3.2568
3.0964
2.9417
2.7928
2.6494
2.5117
2.3793
2.2522
2.1304
2.0137
1.9020
1.7954
1.6937
1.5971
1.5060
1.4207
1.3426
1.2739
1.2186
1.1842
114.1460
114.1460
114.1829
114.2710
114.4189
114.6257
114.8788
115.1574
115.4372
115.6951
115.9129
116.0781
116.1839
116.2282
116.2123
116.1396
116.0148
115.8435
115.6309
115.3822
115.1024
114.7956
114.4658
114.1162
113.7498
113.3690
112.9761
112.5727
112.1606
111.7409
111.3148
110.8833
110.4471
110.0070
109.5635
109.1171
108.6682
108.2172
107.7644
107.3100
106.8544
106.3975
105.9397
105.4810
105.0216
104.5616
104.1011
103.6400
103.1786
102.7168
102.2547
101.7924
101.3298
100.8670
100.4041
99.9410
99.4778
99.0144
98.5510
98.0875
97.6239
97.1602
96.6965
96.2328
95.7690
95.3051
94.8413
94.3774
93.9135
93.4495
92.9856
92.5216
92.0576
91.5936
91.1296
90.6656
90.2015
89.7375
89.2734
88.8094
88.3453
87.8813
87.4172
86.9531
86.4891
86.0250
85.5609
85.0968
84.6328
84.1687
83.7046
83.2405
82.7764
82.3123
81.8483
81.3842
80.9201
80.4560
79.9919
79.5278
79.0637
78.5996
78.1355
77.6715
77.2074
76.7433
76.2792
75.8151
75.3510
74.8869
74.4228
73.9587
73.4946
73.0305
72.5664
72.1023
71.6383
71.1742
70.7101
70.2460
69.7819
69.3178
68.8537
68.3896
67.9255
67.4614
66.9973
66.5332
66.0691
65.6050
65.1409
64.6768
64.2128
63.7487
63.2846
62.8205
62.3564
61.8923
61.4282
60.9641
60.5000
60.0359
59.5717
59.1076
58.6435
58.1794
57.7153
57.2512
56.7871
56.3230
55.8588
55.3947
54.9306
54.4665
54.0023
53.5382
53.0741
52.6099
52.1458
51.6816
51.2175
50.7533
50.2891
49.8249
49.3608
48.8966
48.4324
47.9682
47.5040
47.0398
46.5756
46.1114
45.6472
45.1830
44.7187
44.2545
43.7903
43.3261
42.8619
42.3977
41.9335
41.4694
41.0052
40.5411
40.0770
39.6130
39.1490
38.6850
38.2211
37.7573
37.2936
36.8299
36.3663
35.9029
35.4396
34.9764
34.5134
34.0506
33.5881
33.1257
32.6636
32.2018
31.7403
31.2791
30.8184
30.3580
29.8982
29.4388
28.9800
28.5217
28.0642
27.6073
27.1512
26.6959
26.2415
25.7881
25.3357
24.8844
24.4342
23.9854
23.5379
23.0918
22.6472
22.2043
21.7631
21.3237
20.8863
20.4509
20.0177
19.5868
19.1582
18.7322
18.3088
17.8881
17.4704
17.0557
16.6441
16.2358
15.8310
15.4297
15.0321
14.6383
14.2485
13.8628
13.4813
13.1042
12.7317
12.3637
12.0005
11.6422
11.2889
10.9407
10.5978
10.2602
9.9281
9.6015
9.2807
8.9655
8.6562
8.3529
8.0555
7.7642
7.4791
7.2001
6.9274
6.6609
6.4007
6.1469
5.8995
5.6584
5.4237
5.1953
4.9734
4.7578
4.5484
4.3454
4.1487
3.9581
3.7737
3.5954
3.4231
3.2568
3.0964
2.9417
2.7928
2.6494
2.5117
2.3793
2.2522
2.1304
2.0137
1.9020
1.7954
1.6937
1.5971
1.5060
1.4207
1.3426
1.2739
1.2186
1.1842
114.4372
114.4372
114.4860
114.6016
114.7930
115.0536
115.3605
115.6815
115.9850
116.2458
116.4477
116.5825
116.6485
116.6480
116.5859
116.4683
116.3015
116.0917
115.8448
115.5658
115.2596
114.9299
114.5804
114.2140
113.8332
113.4401
113.0367
112.6245
112.2048
111.7787
111.3471
110.9109
110.4708
110.0273
109.5809
109.1320
108.6811
108.2283
107.7739
107.3183
106.8614
106.4036
105.9450
105.4856
105.0256
104.5650
104.1040
103.6426
103.1808
102.7187
102.2564
101.7938
101.3311
100.8681
100.4050
99.9418
99.4785
99.0151
98.5515
98.0880
97.6243
97.1606
96.6969
96.2331
95.7692
95.3054
94.8415
94.3775
93.9136
93.4497
92.9857
92.5217
92.0577
91.5937
91.1296
90.6656
90.2016
89.7375
89.2735
88.8094
88.3454
87.8813
87.4172
86.9532
86.4891
86.0250
85.5609
85.0969
84.6328
84.1687
83.7046
83.2405
82.7764
82.3123
81.8483
81.3842
80.9201
80.4560
79.9919
79.5278
79.0637
78.5996
78.1355
77.6715
77.2074
76.7433
76.2792
75.8151
75.3510
74.8869
74.4228
73.9587
73.4946
73.0305
72.5664
72.1023
71.6383
71.1742
70.7101
70.2460
69.7819
69.3178
68.8537
68.3896
67.9255
67.4614
66.9973
66.5332
66.0691
65.6050
65.1409
64.6768
64.2128
63.7487
63.2846
62.8205
62.3564
61.8923
61.4282
60.9641
60.5000
60.0359
59.5717
59.1076
58.6435
58.1794
57.7153
57.2512
56.7871
56.3230
55.8588
55.3947
54.9306
54.4665
54.0023
53.5382
53.0741
52.6099
52.1458
51.6816
51.2175
50.7533
50.2891
49.8249
49.3608
48.8966
48.4324
47.9682
47.5040
47.0398
46.5756
46.1114
45.6472
45.1830
44.7187
44.2545
43.7903
43.3261
42.8619
42.3977
41.9335
41.4694
41.0052
40.5411
40.0770
39.6130
39.1490
38.6850
38.2211
37.7573
37.2936
36.8299
36.3663
35.9029
35.4396
34.9764
34.5134
34.0506
33.5881
33.1257
32.6636
32.2018
31.7403
31.2791
30.8184
30.3580
29.8982
29.4388
28.9800
28.5217
28.0642
27.6073
27.1512
26.6959
26.2415
25.7881
25.3357
24.8844
24.4342
23.9854
23.5379
23.0918
22.6472
22.2043
21.7631
21.3237
20.8863
20.4509
20.0177
19.5868
19.1582
18.7322
18.3088
17.8881
17.4704
17.0557
16.6441
16.2358
15.8310
15.4297
15.0321
14.6383
14.2485
13.8628
13.4813
13.1042
12.7317
12.3637
12.0005
11.6422
11.2889
10.9407
10.5978
10.2602
9.9281
9.6015
9.2807
8.9655
8.6562
8.3529
8.0555
7.7642
7.4791
7.2001
6.9274
6.6609
6.4007
6.1469
5.8995
5.6584
5.4237
5.1953
4.9734
4.7578
4.5484
4.3454
4.1487
3.9581
3.7737
3.5954
3.4231
3.2568
3.0964
2.9417
2.7928
2.6494
2.5117
2.3793
2.2522
2.1304
2.0137
1.9020
1.7954
1.6937
1.5971
1.5060
1.4207
1.3426
1.2739
1.2186
1.1842
115.2138
115.2138
115.2992
115.5000
115.8257
116.2503
116.7137
117.1489
117.5056
117.7574
117.8985
117.9358
117.8827
117.7540
117.5636
117.3236
117.0440
116.7325
116.3954
116.0375
115.6628
115.2742
114.8740
114.4644
114.0467
113.6222
113.1921
112.7571
112.3181
111.8755
111.4300
110.9819
110.5316
110.0794
109.6257
109.1705
108.7141
108.2567
107.7984
107.3394
106.8797
106.4194
105.9586
105.4974
105.0358
104.5739
104.1117
103.6492
103.1866
102.7237
102.2607
101.7976
101.3343
100.8710
100.4075
99.9440
99.4804
99.0167
98.5530
98.0892
97.6254
97.1616
96.6977
96.2338
95.7699
95.3059
94.8420
94.3780
93.9140
93.4500
92.9860
92.5219
92.0579
91.5939
91.1298
90.6658
90.2017
89.7376
89.2736
88.8095
88.3454
87.8814
87.4173
86.9532
86.4891
86.0251
85.5610
85.0969
84.6328
84.1687
83.7046
83.2405
82.7765
82.3124
81.8483
81.3842
80.9201
80.4560
79.9919
79.5278
79.0637
78.5996
78.1355
77.6715
77.2074
76.7433
76.2792
75.8151
75.3510
74.8869
74.4228
73.9587
73.4946
73.0305
72.5664
72.1024
71.6383
71.1742
70.7101
70.2460
69.7819
69.3178
68.8537
68.3896
67.9255
67.4614
66.9973
66.5332
66.0691
65.6050
65.1409
64.6768
64.2128
63.7487
63.2846
62.8205
62.3564
61.8923
61.4282
60.9641
60.5000
60.0359
59.5717
59.1076
58.6435
58.1794
57.7153
57.2512
56.7871
56.3230
55.8588
55.3947
54.9306
54.4665
54.0023
53.5382
53.0741
52.6099
52.1458
51.6816
51.2175
50.7533
50.2891
49.8249
49.3608
48.8966
48.4324
47.9682
47.5040
47.0398
46.5756
46.1114
45.6472
45.1830
44.7187
44.2545
43.7903
43.3261
42.8619
42.3977
41.9335
41.4694
41.0052
40.5411
40.0770
39.6130
39.1490
38.6850
38.2211
37.7573
37.2936
36.8299
36.3663
35.9029
35.4396
34.9764
34.5134
34.0506
33.5881
33.1257
32.6636
32.2018
31.7403
31.2791
30.8184
30.3580
29.8982
29.4388
28.9800
28.5217
28.0642
27.6073
27.1512
26.6959
26.2415
25.7881
25.3357
24.8844
24.4342
23.9854
23.5379
23.0918
22.6472
22.2043
21.7631
21.3237
20.8863
20.4509
20.0177
19.5868
19.1582
18.7322
18.3088
17.8881
17.4704
17.0557
16.6441
16.2358
15.8310
15.4297
15.0321
14.6383
14.2485
13.8628
13.4813
13.1042
12.7317
12.3637
12.0005
11.6422
11.2889
10.9407
10.5978
10.2602
9.9281
9.6015
9.2807
8.9655
8.6562
8.3529
8.0555
7.7642
7.4791
7.2001
6.9274
6.6609
6.4007
6.1469
5.8995
5.6584
5.4237
5.1953
4.9734
4.7578
4.5484
4.3454
4.1487
3.9581
3.7737
3.5954
3.4231
3.2568
3.0964
2.9417
2.7928
2.6494
2.5117
2.3793
2.2522
2.1304
2.0137
1.9020
1.7954
1.6937
1.5971
1.5060
1.4207
1.3426
1.2739
1.2186
1.1842
116.7823
116.7823
116.9606
117.3791
118.0483
118.8827
119.7077
120.3684
120.7867
120.9549
120.9068
120.6912
120.3559
119.9407
119.4757
118.9820
118.4737
117.9598
117.4459
116.9348
116.4283
115.9267
115.4301
114.9383
114.4506
113.9667
113.4861
113.0082
112.5326
112.0590
111.5871
111.1165
110.6470
110.1785
109.7107
109.2436
108.7771
108.3109
107.8452
107.3797
106.9145
106.4494
105.9846
105.5198
105.0552
104.5907
104.1263
103.6619
103.1976
102.7333
102.2690
101.8048
101.3406
100.8764
100.4123
99.9481
99.4840
99.0198
98.5557
98.0916
97.6275
97.1634
96.6993
96.2352
95.7711
95.3070
94.8429
94.3788
93.9147
93.4506
92.9865
92.5224
92.0583
91.5942
91.1301
90.6660
90.2020
89.7379
89.2738
88.8097
88.3456
87.8815
87.4174
86.9533
86.4892
86.0251
85.5610
85.0969
84.6329
84.1688
83.7047
83.2406
82.7765
82.3124
81.8483
81.3842
80.9201
80.4560
79.9919
79.5278
79.0637
78.5997
78.1356
77.6715
77.2074
76.7433
76.2792
75.8151
75.3510
74.8869
74.4228
73.9587
73.4946
73.0305
72.5664
72.1024
71.6383
71.1742
70.7101
70.2460
69.7819
69.3178
68.8537
68.3896
67.9255
67.4614
66.9973
66.5332
66.0691
65.6050
65.1409
64.6768
64.2128
63.7487
63.2846
62.8205
62.3564
61.8923
61.4282
60.9641
60.5000
60.0359
59.5717
59.1076
58.6435
58.1794
57.7153
57.2512
56.7871
56.3230
55.8588
55.3947
54.9306
54.4665
54.0023
53.5382
53.0741
52.6099
52.1458
51.6816
51.2175
50.7533
50.2891
49.8249
49.3608
48.8966
48.4324
47.9682
47.5040
47.0398
46.5756
46.1114
45.6472
45.1830
44.7187
44.2545
43.7903
43.3261
42.8619
42.3977
41.9335
41.4694
41.0052
40.5411
40.0770
39.6130
39.1490
38.6850
38.2211
37.7573
37.2936
36.8299
36.3663
35.9029
35.4396
34.9764
34.5134
34.0506
33.5881
33.1257
32.6636
32.2018
31.7403
31.2791
30.8184
30.3580
29.8982
29.4388
28.9800
28.5217
28.0642
27.6073
27.1512
26.6959
26.2415
25.7881
25.3357
24.8844
24.4342
23.9854
23.5379
23.0918
22.6472
22.2043
21.7631
21.3237
20.8863
20.4509
20.0177
19.5868
19.1582
18.7322
18.3088
17.8881
17.4704
17.0557
16.6441
16.2358
15.8310
15.4297
15.0321
14.6383
14.2485
13.8628
13.4813
13.1042
12.7317
12.3637
12.0005
11.6422
11.2889
10.9407
10.5978
10.2602
9.9281
9.6015
9.2807
8.9655
8.6562
8.3529
8.0555
7.7642
7.4791
7.2001
6.9274
6.6609
6.4007
6.1469
5.8995
5.6584
5.4237
5.1953
4.9734
4.7578
4.5484
4.3454
4.1487
3.9581
3.7737
3.5954
3.4231
3.2568
3.0964
2.9417
2.7928
2.6494
2.5117
2.3793
2.2522
2.1304
2.0137
1.9020
1.7954
1.6937
1.5971
1.5060
1.4207
1.3426
1.2739
1.2186
1.1842
119.6096
119.6096
120.0110
120.9604
122.4785
124.3043
125.8944
126.9021
127.2618
127.0768
126.5040
125.6902
124.7489
123.7583
122.7680
121.8065
120.8886
120.0200
119.2010
118.4290
117.7000
117.0091
116.3518
115.7234
115.1199
114.5377
113.9735
113.4247
112.8888
112.3639
111.8483
111.3405
110.8393
110.3437
109.8528
109.3659
108.8823
108.4017
107.9234
107.4473
106.9728
106.4999
106.0282
105.5577
105.0880
104.6191
104.1509
103.6833
103.2161
102.7494
102.2831
101.8170
101.3512
100.8857
100.4203
99.9551
99.4901
99.0252
98.5604
98.0957
97.6311
97.1665
96.7020
96.2376
95.7732
95.3088
94.8445
94.3802
93.9159
93.4517
92.9875
92.5232
92.0591
91.5949
91.1307
90.6665
90.2024
89.7382
89.2741
88.8100
88.3458
87.8817
87.4176
86.9535
86.4894
86.0253
85.5612
85.0970
84.6329
84.1688
83.7047
83.2406
82.7765
82.3124
81.8483
81.3842
80.9201
80.4561
79.9920
79.5279
79.0638
78.5997
78.1356
77.6715
77.2074
76.7433
76.2792
75.8151
75.3510
74.8869
74.4228
73.9587
73.4946
73.0305
72.5664
72.1024
71.6383
71.1742
70.7101
70.2460
69.7819
69.3178
68.8537
68.3896
67.9255
67.4614
66.9973
66.5332
66.0691
65.6050
65.1409
64.6768
64.2128
63.7487
63.2846
62.8205
62.3564
61.8923
61.4282
60.9641
60.5000
60.0359
59.5717
59.1076
58.6435
58.1794
57.7153
57.2512
56.7871
56.3230
55.8588
55.3947
54.9306
54.4665
54.0023
53.5382
53.0741
52.6099
52.1458
51.6816
51.2175
50.7533
50.2891
49.8249
49.3608
48.8966
48.4324
47.9682
47.5040
47.0398
46.5756
46.1114
45.6472
45.1830
44.7187
44.2545
43.7903
43.3261
42.8619
42.3977
41.9335
41.4694
41.0052
40.5411
40.0770
39.6130
39.1490
38.6850
38.2211
37.7573
37.2936
36.8299
36.3663
35.9029
35.4396
34.9764
34.5134
34.0506
33.5881
33.1257
32.6636
32.2018
31.7403
31.2791
30.8184
30.3580
29.8982
29.4388
28.9800
28.5217
28.0642
27.6073
27.1512
26.6959
26.2415
25.7881
25.3357
24.8844
24.4342
23.9854
23.5379
23.0918
22.6472
22.2043
21.7631
21.3237
20.8863
20.4509
20.0177
19.5868
19.1582
18.7322
18.3088
17.8881
17.4704
17.0557
16.6441
16.2358
15.8310
15.4297
15.0321
14.6383
14.2485
13.8628
13.4813
13.1042
12.7317
12.3637
12.0005
11.6422
11.2889
10.9407
10.5978
10.2602
9.9281
9.6015
9.2807
8.9655
8.6562
8.3529
8.0555
7.7642
7.4791
7.2001
6.9274
6.6609
6.4007
6.1469
5.8995
5.6584
5.4237
5.1953
4.9734
4.7578
4.5484
4.3454
4.1487
3.9581
3.7737
3.5954
3.4231
3.2568
3.0964
2.9417
2.7928
2.6494
2.5117
2.3793
2.2522
2.1304
2.0137
1.9020
1.7954
1.6937
1.5971
1.5060
1.4207
1.3426
1.2739
1.2186
1.1842
124.3629
124.3629
125.2823
127.5047
131.1353
135.4145
138.4909
139.7444
139.4430
138.1127
136.2231
134.1044
131.9600
129.9027
127.9871
126.2331
124.6410
123.2012
121.8992
120.7191
119.6453
118.6632
117.7595
116.9227
116.1426
115.4107
114.7195
114.0628
113.4352
112.8322
112.2500
111.6854
111.1357
110.5986
110.0723
109.5550
109.0454
108.5424
108.0450
107.5523
107.0637
106.5786
106.0964
105.6167
105.1392
104.6635
104.1895
103.7168
103.2453
102.7748
102.3051
101.8362
101.3680
100.9003
100.4330
99.9662
99.4998
99.0336
98.5678
98.1021
97.6367
97.1714
96.7063
96.2413
95.7765
95.3117
94.8470
94.3824
93.9179
93.4534
92.9889
92.5246
92.0602
91.5959
91.1316
90.6673
90.2031
89.7388
89.2746
88.8104
88.3463
87.8821
87.4179
86.9538
86.4896
86.0255
85.5613
85.0972
84.6331
84.1690
83.7049
83.2407
82.7766
82.3125
81.8484
81.3843
80.9202
80.4561
79.9920
79.5279
79.0638
78.5997
78.1356
77.6715
77.2074
76.7433
76.2792
75.8151
75.3510
74.8869
74.4228
73.9587
73.4946
73.0305
72.5665
72.1024
71.6383
71.1742
70.7101
70.2460
69.7819
69.3178
68.8537
68.3896
67.9255
67.4614
66.9973
66.5332
66.0691
65.6050
65.1409
64.6768
64.2128
63.7487
63.2846
62.8205
62.3564
61.8923
61.4282
60.9641
60.5000
60.0359
59.5717
59.1076
58.6435
58.1794
57.7153
57.2512
56.7871
56.3230
55.8588
55.3947
54.9306
54.4665
54.0023
53.5382
53.0741
52.6099
52.1458
51.6816
51.2175
50.7533
50.2891
49.8249
49.3608
48.8966
48.4324
47.9682
47.5040
47.0398
46.5756
46.1114
45.6472
45.1830
44.7187
44.2545
43.7903
43.3261
42.8619
42.3977
41.9335
41.4694
41.0052
40.5411
40.0770
39.6130
39.1490
38.6850
38.2211
37.7573
37.2936
36.8299
36.3663
35.9029
35.4396
34.9764
34.5134
34.0506
33.5881
33.1257
32.6636
32.2018
31.7403
31.2791
30.8184
30.3580
29.8982
29.4388
28.9800
28.5217
28.0642
27.6073
27.1512
26.6959
26.2415
25.7881
25.3357
24.8844
24.4342
23.9854
23.5379
23.0918
22.6472
22.2043
21.7631
21.3237
20.8863
20.4509
20.0177
19.5868
19.1582
18.7322
18.3088
17.8881
17.4704
17.0557
16.6441
16.2358
15.8310
15.4297
15.0321
14.6383
14.2485
13.8628
13.4813
13.1042
12.7317
12.3637
12.0005
11.6422
11.2889
10.9407
10.5978
10.2602
9.9281
9.6015
9.2807
8.9655
8.6562
8.3529
8.0555
7.7642
7.4791
7.2001
6.9274
6.6609
6.4007
6.1469
5.8995
5.6584
5.4237
5.1953
4.9734
4.7578
4.5484
4.3454
4.1487
3.9581
3.7737
3.5954
3.4231
3.2568
3.0964
2.9417
2.7928
2.6494
2.5117
2.3793
2.2522
2.1304
2.0137
1.9020
1.7954
1.6937
1.5971
1.5060
1.4207
1.3426
1.2739
1.2186
1.1842
131.8862
131.8862
133.9561
139.1680
148.1602
158.9376
164.3209
164.4371
161.3814
156.8989
152.0357
147.3238
142.9949
139.1237
135.7089
132.7156
130.0969
127.8040
125.7909
124.0161
122.4435
121.0420
119.7849
118.6495
117.6169
116.6709
115.7980
114.9868
114.2276
113.5125
112.8346
112.1882
111.5685
110.9716
110.3939
109.8325
109.2851
108.7496
108.2242
107.7074
107.1981
106.6950
106.1973
105.7043
105.2153
104.7296
104.2469
103.7668
103.2887
102.8126
102.3381
101.8649
101.3930
100.9221
100.4521
99.9829
99.5143
99.0463
98.5789
98.1118
97.6452
97.1789
96.7128
96.2470
95.7815
95.3161
94.8508
94.3858
93.9208
93.4560
92.9912
92.5265
92.0619
91.5974
91.1329
90.6685
90.2041
89.7398
89.2754
88.8111
88.3469
87.8826
87.4184
86.9542
86.4900
86.0258
85.5616
85.0975
84.6333
84.1692
83.7050
83.2409
82.7768
82.3126
81.8485
81.3844
80.9203
80.4562
79.9921
79.5280
79.0638
78.5997
78.1356
77.6715
77.2074
76.7433
76.2792
75.8151
75.3510
74.8869
74.4228
73.9588
73.4947
73.0306
72.5665
72.1024
71.6383
71.1742
70.7101
70.2460
69.7819
69.3178
68.8537
68.3896
67.9255
67.4614
66.9973
66.5332
66.0691
65.6050
65.1409
64.6768
64.2128
63.7487
63.2846
62.8205
62.3564
61.8923
61.4282
60.9641
60.5000
60.0359
59.5717
59.1076
58.6435
58.1794
57.7153
57.2512
56.7871
56.3230
55.8588
55.3947
54.9306
54.4665
54.0023
53.5382
53.0741
52.6099
52.1458
51.6816
51.2175
50.7533
50.2891
49.8249
49.3608
48.8966
48.4324
47.9682
47.5040
47.0398
46.5756
46.1114
45.6472
45.1830
44.7187
44.2545
43.7903
43.3261
42.8619
42.3977
41.9335
41.4694
41.0052
40.5411
40.0770
39.6130
39.1490
38.6850
38.2211
37.7573
37.2936
36.8299
36.3663
35.9029
35.4396
34.9764
34.5134
34.0506
33.5881
33.1257
32.6636
32.2018
31.7403
31.2791
30.8184
30.3580
29.8982
29.4388
28.9800
28.5217
28.0642
27.6073
27.1512
26.6959
26.2415
25.7881
25.3357
24.8844
24.4342
23.9854
23.5379
23.0918
22.6472
22.2043
21.7631
21.3237
20.8863
20.4509
20.0177
19.5868
19.1582
18.7322
18.3088
17.8881
17.4704
17.0557
16.6441
16.2358
15.8310
15.4297
15.0321
14.6383
14.2485
13.8628
13.4813
13.1042
12.7317
12.3637
12.0005
11.6422
11.2889
10.9407
10.5978
10.2602
9.9281
9.6015
9.2807
8.9655
8.6562
8.3529
8.0555
7.7642
7.4791
7.2001
6.9274
6.6609
6.4007
6.1469
5.8995
5.6584
5.4237
5.1953
4.9734
4.7578
4.5484
4.3454
4.1487
3.9581
3.7737
3.5954
3.4231
3.2568
3.0964
2.9417
2.7928
2.6494
2.5117
2.3793
2.2522
2.1304
2.0137
1.9020
1.7954
1.6937
1.5971
1.5060
1.4207
1.3426
1.2739
1.2186
1.1842
142.9874
142.9874
147.4131
159.3119
182.1249
212.4368
217.8173
210.1724
198.4269
186.5081
175.7677
166.5042
158.6422
151.9994
146.3828
141.6190
137.5615
134.0886
131.1006
128.5153
126.2655
124.2956
122.5598
121.0202
119.6451
118.4085
117.2884
116.2666
115.3277
114.4590
113.6498
112.8909
112.1748
111.4950
110.8462
110.2236
109.6236
109.0426
108.4781
107.9276
107.3890
106.8608
106.3413
105.8294
105.3241
104.8243
104.3293
103.8385
103.3513
102.8671
102.3856
101.9064
101.4292
100.9537
100.4797
100.0070
99.5354
99.0648
98.5950
98.1260
97.6575
97.1897
96.7223
96.2553
95.7887
95.3225
94.8564
94.3907
93.9251
93.4598