# vtk DataFile Version 5.0
Example 3D regular grid VTK file.
ASCII
DATASET UNSTRUCTURED_GRID
POINTS 90601 float
0 0 0
0 10 0
0 20 0
0 30 0
0 40 0
0 50 0
0 60 0
0 70 0
0 80 0
0 90 0
0 100 0
0 110 0
0 120 0
0 130 0
0 140 0
0 150 0
0 160 0
0 170 0
0 180 0
0 190 0
0 200 0
0 210 0
0 220 0
0 230 0
0 240 0
0 250 0
0 260 0
0 270 0
0 280 0
0 290 0
0 300 0
0 310 0
0 320 0
0 330 0
0 340 0
0 350 0
0 360 0
0 370 0
0 380 0
0 390 0
0 400 0
0 410 0
0 420 0
0 430 0
0 440 0
0 450 0
0 460 0
0 470 0
0 480 0
0 490 0
0 500 0
0 510 0
0 520 0
0 530 0
0 540 0
0 550 0
0 560 0
0 570 0
0 580 0
0 590 0
0 600 0
0 610 0
0 620 0
0 630 0
0 640 0
0 650 0
0 660 0
0 670 0
0 680 0
0 690 0
0 700 0
0 710 0
0 720 0
0 730 0
0 740 0
0 750 0
0 760 0
0 770 0
0 780 0
0 790 0
0 800 0
0 810 0
0 820 0
0 830 0
0 840 0
0 850 0
0 860 0
0 870 0
0 880 0
0 890 0
0 900 0
0 910 0
0 920 0
0 930 0
0 940 0
0 950 0
0 960 0
0 970 0
0 980 0
0 990 0
0 1000 0
0 1010 0
0 1020 0
0 1030 0
0 1040 0
0 1050 0
0 1060 0
0 1070 0
0 1080 0
0 1090 0
0 1100 0
0 1110 0
0 1120 0
0 1130 0
0 1140 0
0 1150 0
0 1160 0
0 1170 0
0 1180 0
0 1190 0
0 1200 0
0 1210 0
0 1220 0
0 1230 0
0 1240 0
0 1250 0
0 1260 0
0 1270 0
0 1280 0
0 1290 0
0 1300 0
0 1310 0
0 1320 0
0 1330 0
0 1340 0
0 1350 0
0 1360 0
0 1370 0
0 1380 0
0 1390 0
0 1400 0
0 1410 0
0 1420 0
0 1430 0
0 1440 0
0 1450 0
0 1460 0
0 1470 0
0 1480 0
0 1490 0
0 1500 0
0 1510 0
0 1520 0
0 1530 0
0 1540 0
0 1550 0
0 1560 0
0 1570 0
0 1580 0
0 1590 0
0 1600 0
0 1610 0
0 1620 0
0 1630 0
0 1640 0
0 1650 0
0 1660 0
0 1670 0
0 1680 0
0 1690 0
0 1700 0
0 1710 0
0 1720 0
0 1730 0
0 1740 0
0 1750 0
0 1760 0
0 1770 0
0 1780 0
0 1790 0
0 1800 0
0 1810 0
0 1820 0
0 1830 0
0 1840 0
0 1850 0
0 1860 0
0 1870 0
0 1880 0
0 1890 0
0 1900 0
0 1910 0
0 1920 0
0 1930 0
0 1940 0
0 1950 0
0 1960 0
0 1970 0
0 1980 0
0 1990 0
0 2000 0
0 2010 0
0 2020 0
0 2030 0
0 2040 0
0 2050 0
0 2060 0
0 2070 0
0 2080 0
0 2090 0
0 2100 0
0 2110 0
0 2120 0
0 2130 0
0 2140 0
0 2150 0
0 2160 0
0 2170 0
0 2180 0
0 2190 0
0 2200 0
0 2210 0
0 2220 0
0 2230 0
0 2240 0
0 2250 0
0 2260 0
0 2270 0
0 2280 0
0 2290 0
0 2300 0
0 2310 0
0 2320 0
0 2330 0
0 2340 0
0 2350 0
0 2360 0
0 2370 0
0 2380 0
0 2390 0
0 2400 0
0 2410 0
0 2420 0
0 2430 0
0 2440 0
0 2450 0
0 2460 0
0 2470 0
0 2480 0
0 2490 0
0 2500 0
0 2510 0
0 2520 0
0 2530 0
0 2540 0
0 2550 0
0 2560 0
0 2570 0
0 2580 0
0 2590 0
0 2600 0
0 2610 0
0 2620 0
0 2630 0
0 2640 0
0 2650 0
0 2660 0
0 2670 0
0 2680 0
0 2690 0
0 2700 0
0 2710 0
0 2720 0
0 2730 0
0 2740 0
0 2750 0
0 2760 0
0 2770 0
0 2780 0
0 2790 0
0 2800 0
0 2810 0
0 2820 0
0 2830 0
0 2840 0
0 2850 0
0 2860 0
0 2870 0
0 2880 0
0 2890 0
0 2900 0
0 2910 0
0 2920 0
0 2930 0
0 2940 0
0 2950 0
0 2960 0
0 2970 0
0 2980 0
0 2990 0
0 3000 0
10 0 0
10 10 0
10 20 0
10 30 0
10 40 0
10 50 0
10 60 0
10 70 0
10 80 0
10 90 0
10 100 0
10 110 0
10 120 0
10 130 0
10 140 0
10 150 0
10 160 0
10 170 0
10 180 0
10 190 0
10 200 0
10 210 0
10 220 0
10 230 0
10 240 0
10 250 0
10 260 0
10 270 0
10 280 0
10 290 0
10 300 0
10 310 0
10 320 0
10 330 0
10 340 0
10 350 0
10 360 0
10 370 0
10 380 0
10 390 0
10 400 0
10 410 0
10 420 0
10 430 0
10 440 0
10 450 0
10 460 0
10 470 0
10 480 0
10 490 0
10 500 0
10 510 0
10 520 0
10 530 0
10 540 0
10 550 0
10 560 0
10 570 0
10 580 0
10 590 0
10 600 0
10 610 0
10 620 0
10 630 0
10 640 0
10 650 0
10 660 0
10 670 0
10 680 0
10 690 0
10 700 0
10 710 0
10 720 0
10 730 0
10 740 0
10 750 0
10 760 0
10 770 0
10 780 0
10 790 0
10 800 0
10 810 0
10 820 0
10 830 0
10 840 0
10 850 0
10 860 0
10 870 0
10 880 0
10 890 0
10 900 0
10 910 0
10 920 0
10 930 0
10 940 0
10 950 0
10 960 0
10 970 0
10 980 0
10 990 0
10 1000 0
10 1010 0
10 1020 0
10 1030 0
10 1040 0
10 1050 0
10 1060 0
10 1070 0
10 1080 0
10 1090 0
10 1100 0
10 1110 0
10 1120 0
10 1130 0
10 1140 0
10 1150 0
10 1160 0
10 1170 0
10 1180 0
10 1190 0
10 1200 0
10 1210 0
10 1220 0
10 1230 0
10 1240 0
10 1250 0
10 1260 0
10 1270 0
10 1280 0
10 1290 0
10 1300 0
10 1310 0
10 1320 0
10 1330 0
10 1340 0
10 1350 0
10 1360 0
10 1370 0
10 1380 0
10 1390 0
10 1400 0
10 1410 0
10 1420 0
10 1430 0
10 1440 0
10 1450 0
10 1460 0
10 1470 0
10 1480 0
10 1490 0
10 1500 0
10 1510 0
10 1520 0
10 1530 0
10 1540 0
10 1550 0
10 1560 0
10 1570 0
10 1580 0
10 1590 0
10 1600 0
10 1610 0
10 1620 0
10 1630 0
10 1640 0
10 1650 0
10 1660 0
10 1670 0
10 1680 0
10 1690 0
10 1700 0
10 1710 0
10 1720 0
10 1730 0
10 1740 0
10 1750 0
10 1760 0
10 1770 0
10 1780 0
10 1790 0
10 1800 0
10 1810 0
10 1820 0
10 1830 0
10 1840 0
10 1850 0
10 1860 0
10 1870 0
10 1880 0
10 1890 0
10 1900 0
10 1910 0
10 1920 0
10 1930 0
10 1940 0
10 1950 0
10 1960 0
10 1970 0
10 1980 0
10 1990 0
10 2000 0
10 2010 0
10 2020 0
10 2030 0
10 2040 0
10 2050 0
10 2060 0
10 2070 0
10 2080 0
10 2090 0
10 2100 0
10 2110 0
10 2120 0
10 2130 0
10 2140 0
10 2150 0
10 2160 0
10 2170 0
10 2180 0
10 2190 0
10 2200 0
10 2210 0
10 2220 0
10 2230 0
10 2240 0
10 2250 0
10 2260 0
10 2270 0
10 2280 0
10 2290 0
10 2300 0
10 2310 0
10 2320 0
10 2330 0
10 2340 0
10 2350 0
10 2360 0
10 2370 0
10 2380 0
10 2390 0
10 2400 0
10 2410 0
10 2420 0
10 2430 0
10 2440 0
10 2450 0
10 2460 0
10 2470 0
10 2480 0
10 2490 0
10 2500 0
10 2510 0
10 2520 0
10 2530 0
10 2540 0
10 2550 0
10 2560 0
10 2570 0
10 2580 0
10 2590 0
10 2600 0
10 2610 0
10 2620 0
10 2630 0
10 2640 0
10 2650 0
10 2660 0
10 2670 0
10 2680 0
10 2690 0
10 2700 0
10 2710 0
10 2720 0
10 2730 0
10 2740 0
10 2750 0
10 2760 0
10 2770 0
10 2780 0
10 2790 0
10 2800 0
10 2810 0
10 2820 0
10 2830 0
10 2840 0
10 2850 0
10 2860 0
10 2870 0
10 2880 0
10 2890 0
10 2900 0
10 2910 0
10 2920 0
10 2930 0
10 2940 0
10 2950 0
10 2960 0
10 2970 0
10 2980 0
10 2990 0
10 3000 0
20 0 0
20 10 0
20 20 0
20 30 0
20 40 0
20 50 0
20 60 0
20 70 0
20 80 0
20 90 0
20 100 0
20 110 0
20 120 0
20 130 0
20 140 0
20 150 0
20 160 0
20 170 0
20 180 0
20 190 0
20 200 0
20 210 0
20 220 0
20 230 0
20 240 0
20 250 0
20 260 0
20 270 0
20 280 0
20 290 0
20 300 0
20 310 0
20 320 0
20 330 0
20 340 0
20 350 0
20 360 0
20 370 0
20 380 0
20 390 0
20 400 0
20 410 0
20 420 0
20 430 0
20 440 0
20 450 0
20 460 0
20 470 0
20 480 0
20 490 0
20 500 0
20 510 0
20 520 0
20 530 0
20 540 0
20 550 0
20 560 0
20 570 0
20 580 0
20 590 0
20 600 0
20 610 0
20 620 0
20 630 0
20 640 0
20 650 0
20 660 0
20 670 0
20 680 0
20 690 0
20 700 0
20 710 0
20 720 0
20 730 0
20 740 0
20 750 0
20 760 0
20 770 0
20 780 0
20 790 0
20 800 0
20 810 0
20 820 0
20 830 0
20 840 0
20 850 0
20 860 0
20 870 0
20 880 0
20 890 0
20 900 0
20 910 0
20 920 0
20 930 0
20 940 0
20 950 0
20 960 0
20 970 0
20 980 0
20 990 0
20 1000 0
20 1010 0
20 1020 0
20 1030 0
20 1040 0
20 1050 0
20 1060 0
20 1070 0
20 1080 0
20 1090 0
20 1100 0
20 1110 0
20 1120 0
20 1130 0
20 1140 0
20 1150 0
20 1160 0
20 1170 0
20 1180 0
20 1190 0
20 1200 0
20 1210 0
20 1220 0
20 1230 0
20 1240 0
20 1250 0
20 1260 0
20 1270 0
20 1280 0
20 1290 0
20 1300 0
20 1310 0
20 1320 0
20 1330 0
20 1340 0
20 1350 0
20 1360 0
20 1370 0
20 1380 0
20 1390 0
20 1400 0
20 1410 0
20 1420 0
20 1430 0
20 1440 0
20 1450 0
20 1460 0
20 1470 0
20 1480 0
20 1490 0
20 1500 0
20 1510 0
20 1520 0
20 1530 0
20 1540 0
20 1550 0
20 1560 0
20 1570 0
20 1580 0
20 1590 0
20 1600 0
20 1610 0
20 1620 0
20 1630 0
20 1640 0
20 1650 0
20 1660 0
20 1670 0
20 1680 0
20 1690 0
20 1700 0
20 1710 0
20 1720 0
20 1730 0
20 1740 0
20 1750 0
20 1760 0
20 1770 0
20 1780 0
20 1790 0
20 1800 0
20 1810 0
20 1820 0
20 1830 0
20 1840 0
20 1850 0
20 1860 0
20 1870 0
20 1880 0
20 1890 0
20 1900 0
20 1910 0
20 1920 0
20 1930 0
20 1940 0
20 1950 0
20 1960 0
20 1970 0
20 1980 0
20 1990 0
20 2000 0
20 2010 0
20 2020 0
20 2030 0
20 2040 0
20 2050 0
20 2060 0
20 2070 0
20 2080 0
20 2090 0
20 2100 0
20 2110 0
20 2120 0
20 2130 0
20 2140 0
20 2150 0
20 2160 0
20 2170 0
20 2180 0
20 2190 0
20 2200 0
20 2210 0
20 2220 0
20 2230 0
20 2240 0
20 2250 0
20 2260 0
20 2270 0
20 2280 0
20 2290 0
20 2300 0
20 2310 0
20 2320 0
20 2330 0
20 2340 0
20 2350 0
20 2360 0
20 2370 0
20 2380 0
20 2390 0
20 2400 0
20 2410 0
20 2420 0
20 2430 0
20 2440 0
20 2450 0
20 2460 0
20 2470 0
20 2480 0
20 2490 0
20 2500 0
20 2510 0
20 2520 0
20 2530 0
20 2540 0
20 2550 0
20 2560 0
20 2570 0
20 2580 0
20 2590 0
20 2600 0
20 2610 0
20 2620 0
20 2630 0
20 2640 0
20 2650 0
20 2660 0
20 2670 0
20 2680 0
20 2690 0
20 2700 0
20 2710 0
20 2720 0
20 2730 0
20 2740 0
20 2750 0
20 2760 0
20 2770 0
20 2780 0
20 2790 0
20 2800 0
20 2810 0
20 2820 0
20 2830 0
20 2840 0
20 2850 0
20 2860 0
20 2870 0
20 2880 0
20 2890 0
20 2900 0
20 2910 0
20 2920 0
20 2930 0
20 2940 0
20 2950 0
20 2960 0
20 2970 0
20 2980 0
20 2990 0
20 3000 0
30 0 0
30 10 0
30 20 0
30 30 0
30 40 0
30 50 0
30 60 0
30 70 0
30 80 0
30 90 0
30 100 0
30 110 0
30 120 0
30 130 0
30 140 0
30 150 0
30 160 0
30 170 0
30 180 0
30 190 0
30 200 0
30 210 0
30 220 0
30 230 0
30 240 0
30 250 0
30 260 0
30 270 0
30 280 0
30 290 0
30 300 0
30 310 0
30 320 0
30 330 0
30 340 0
30 350 0
30 360 0
30 370 0
30 380 0
30 390 0
30 400 0
30 410 0
30 420 0
30 430 0
30 440 0
30 450 0
30 460 0
30 470 0
30 480 0
30 490 0
30 500 0
30 510 0
30 520 0
30 530 0
30 540 0
30 550 0
30 560 0
30 570 0
30 580 0
30 590 0
30 600 0
30 610 0
30 620 0
30 630 0
30 640 0
30 650 0
30 660 0
30 670 0
30 680 0
30 690 0
30 700 0
30 710 0
30 720 0
30 730 0
30 740 0
30 750 0
30 760 0
30 770 0
30 780 0
30 790 0
30 800 0
30 810 0
30 820 0
30 830 0
30 840 0
30 850 0
30 860 0
30 870 0
30 880 0
30 890 0
30 900 0
30 910 0
30 920 0
30 930 0
30 940 0
30 950 0
30 960 0
30 970 0
30 980 0
30 990 0
30 1000 0
30 1010 0
30 1020 0
30 1030 0
30 1040 0
30 1050 0
30 1060 0
30 1070 0
30 1080 0
30 1090 0
30 1100 0
30 1110 0
30 1120 0
30 1130 0
30 1140 0
30 1150 0
30 1160 0
30 1170 0
30 1180 0
30 1190 0
30 1200 0
30 1210 0
30 1220 0
30 1230 0
30 1240 0
30 1250 0
30 1260 0
30 1270 0
30 1280 0
30 1290 0
30 1300 0
30 1310 0
30 1320 0
30 1330 0
30 1340 0
30 1350 0
30 1360 0
30 1370 0
30 1380 0
30 1390 0
30 1400 0
30 1410 0
30 1420 0
30 1430 0
30 1440 0
30 1450 0
30 1460 0
30 1470 0
30 1480 0
30 1490 0
30 1500 0
30 1510 0
30 1520 0
30 1530 0
30 1540 0
30 1550 0
30 1560 0
30 1570 0
30 1580 0
30 1590 0
[...]
POINT_DATA 90601
SCALARS P float
LOOKUP_TABLE default
118.8573
118.8573
118.8942
118.9823
119.1303
119.3370
119.5901
119.8687
120.1485
120.4064
120.6242
120.7894
120.8953
120.9395
120.9236
120.8509
120.7262
120.5548
120.3422
120.0936
119.8137
119.5069
119.1771
118.8275
118.4611
118.0803
117.6874
117.2840
116.8719
116.4522
116.0261
115.5946
115.1584
114.7183
114.2748
113.8284
113.3795
112.9285
112.4757
112.0213
111.5657
111.1088
110.6510
110.1923
109.7330
109.2729
108.8124
108.3513
107.8899
107.4281
106.9660
106.5037
106.0411
105.5783
105.1154
104.6523
104.1891
103.7257
103.2623
102.7988
102.3352
101.8715
101.4078
100.9441
100.4803
100.0165
99.5526
99.0887
98.6248
98.1608
97.6969
97.2329
96.7689
96.3049
95.8409
95.3769
94.9128
94.4488
93.9847
93.5207
93.0566
92.5926
92.1285
91.6644
91.2004
90.7363
90.2722
89.8081
89.3441
88.8800
88.4159
87.9518
87.4877
87.0236
86.5596
86.0955
85.6314
85.1673
84.7032
84.2391
83.7750
83.3109
82.8468
82.3828
81.9187
81.4546
80.9905
80.5264
80.0623
79.5982
79.1341
78.6700
78.2059
77.7418
77.2777
76.8137
76.3496
75.8855
75.4214
74.9573
74.4932
74.0291
73.5650
73.1009
72.6368
72.1727
71.7086
71.2445
70.7805
70.3164
69.8523
69.3882
68.9241
68.4600
67.9959
67.5318
67.0677
66.6036
66.1395
65.6754
65.2113
64.7472
64.2831
63.8190
63.3549
62.8908
62.4267
61.9626
61.4985
61.0344
60.5703
60.1062
59.6421
59.1780
58.7139
58.2498
57.7857
57.3215
56.8574
56.3933
55.9292
55.4651
55.0009
54.5368
54.0727
53.6085
53.1444
52.6802
52.2161
51.7519
51.2878
50.8236
50.3594
49.8953
49.4311
48.9669
48.5027
48.0385
47.5743
47.1102
46.6460
46.1818
45.7176
45.2534
44.7892
44.3250
43.8609
43.3967
42.9326
42.4684
42.0043
41.5403
41.0762
40.6122
40.1482
39.6843
39.2205
38.7567
38.2929
37.8293
37.3658
36.9024
36.4391
35.9759
35.5129
35.0501
34.5875
34.1251
33.6629
33.2010
32.7394
32.2782
31.8173
31.3567
30.8966
30.4370
29.9779
29.5193
29.0613
28.6040
28.1474
27.6915
27.2364
26.7822
26.3290
25.8768
25.4256
24.9756
24.5269
24.0794
23.6334
23.1889
22.7459
22.3046
21.8651
21.4274
20.9918
20.5582
20.1268
19.6977
19.2711
18.8470
18.4255
18.0069
17.5911
17.1784
16.7688
16.3626
15.9597
15.5604
15.1648
14.7730
14.3851
14.0013
13.6216
13.2463
12.8755
12.5092
12.1476
11.7908
11.4390
11.0922
10.7506
10.4142
10.0831
9.7576
9.4376
9.1232
8.8145
8.5117
8.2147
7.9237
7.6386
7.3596
7.0867
6.8200
6.5594
6.3050
6.0569
5.8149
5.5792
5.3498
5.1265
4.9095
4.6987
4.4941
4.2956
4.1032
3.9168
3.7365
3.5622
3.3939
3.2317
3.0756
2.9261
2.7837
2.6495
2.5256
2.4160
2.3273
2.2720
118.8573
118.8573
118.8942
118.9823
119.1303
119.3370
119.5901
119.8687
120.1485
120.4064
120.6242
120.7894
120.8953
120.9395
120.9236
120.8509
120.7262
120.5548
120.3422
120.0936
119.8137
119.5069
119.1771
118.8275
118.4611
118.0803
117.6874
117.2840
116.8719
116.4522
116.0261
115.5946
115.1584
114.7183
114.2748
113.8284
113.3795
112.9285
112.4757
112.0213
111.5657
111.1088
110.6510
110.1923
109.7330
109.2729
108.8124
108.3513
107.8899
107.4281
106.9660
106.5037
106.0411
105.5783
105.1154
104.6523
104.1891
103.7257
103.2623
102.7988
102.3352
101.8715
101.4078
100.9441
100.4803
100.0165
99.5526
99.0887
98.6248
98.1608
97.6969
97.2329
96.7689
96.3049
95.8409
95.3769
94.9128
94.4488
93.9847
93.5207
93.0566
92.5926
92.1285
91.6644
91.2004
90.7363
90.2722
89.8081
89.3441
88.8800
88.4159
87.9518
87.4877
87.0236
86.5596
86.0955
85.6314
85.1673
84.7032
84.2391
83.7750
83.3109
82.8468
82.3828
81.9187
81.4546
80.9905
80.5264
80.0623
79.5982
79.1341
78.6700
78.2059
77.7418
77.2777
76.8137
76.3496
75.8855
75.4214
74.9573
74.4932
74.0291
73.5650
73.1009
72.6368
72.1727
71.7086
71.2445
70.7805
70.3164
69.8523
69.3882
68.9241
68.4600
67.9959
67.5318
67.0677
66.6036
66.1395
65.6754
65.2113
64.7472
64.2831
63.8190
63.3549
62.8908
62.4267
61.9626
61.4985
61.0344
60.5703
60.1062
59.6421
59.1780
58.7139
58.2498
57.7857
57.3215
56.8574
56.3933
55.9292
55.4651
55.0009
54.5368
54.0727
53.6085
53.1444
52.6802
52.2161
51.7519
51.2878
50.8236
50.3594
49.8953
49.4311
48.9669
48.5027
48.0385
47.5743
47.1102
46.6460
46.1818
45.7176
45.2534
44.7892
44.3250
43.8609
43.3967
42.9326
42.4684
42.0043
41.5403
41.0762
40.6122
40.1482
39.6843
39.2205
38.7567
38.2929
37.8293
37.3658
36.9024
36.4391
35.9759
35.5129
35.0501
34.5875
34.1251
33.6629
33.2010
32.7394
32.2782
31.8173
31.3567
30.8966
30.4370
29.9779
29.5193
29.0613
28.6040
28.1474
27.6915
27.2364
26.7822
26.3290
25.8768
25.4256
24.9756
24.5269
24.0794
23.6334
23.1889
22.7459
22.3046
21.8651
21.4274
20.9918
20.5582
20.1268
19.6977
19.2711
18.8470
18.4255
18.0069
17.5911
17.1784
16.7688
16.3626
15.9597
15.5604
15.1648
14.7730
14.3851
14.0013
13.6216
13.2463
12.8755
12.5092
12.1476
11.7908
11.4390
11.0922
10.7506
10.4142
10.0831
9.7576
9.4376
9.1232
8.8145
8.5117
8.2147
7.9237
7.6386
7.3596
7.0867
6.8200
6.5594
6.3050
6.0569
5.8149
5.5792
5.3498
5.1265
4.9095
4.6987
4.4941
4.2956
4.1032
3.9168
3.7365
3.5622
3.3939
3.2317
3.0756
2.9261
2.7837
2.6495
2.5256
2.4160
2.3273
2.2720
119.1485
119.1485
119.1973
119.3129
119.5043
119.7649
120.0718
120.3928
120.6963
120.9571
121.1590
121.2938
121.3598
121.3593
121.2972
121.1796
121.0128
120.8030
120.5561
120.2771
119.9709
119.6412
119.2917
118.9253
118.5445
118.1514
117.7480
117.3358
116.9161
116.4900
116.0584
115.6223
115.1821
114.7386
114.2922
113.8433
113.3924
112.9396
112.4852
112.0296
111.5727
111.1149
110.6563
110.1969
109.7369
109.2763
108.8153
108.3539
107.8921
107.4300
106.9677
106.5051
106.0424
105.5794
105.1163
104.6531
104.1898
103.7264
103.2629
102.7993
102.3356
101.8719
101.4082
100.9444
100.4805
100.0167
99.5528
99.0889
98.6249
98.1610
97.6970
97.2330
96.7690
96.3050
95.8410
95.3769
94.9129
94.4488
93.9848
93.5207
93.0567
92.5926
92.1285
91.6645
91.2004
90.7363
90.2722
89.8082
89.3441
88.8800
88.4159
87.9518
87.4877
87.0237
86.5596
86.0955
85.6314
85.1673
84.7032
84.2391
83.7750
83.3109
82.8469
82.3828
81.9187
81.4546
80.9905
80.5264
80.0623
79.5982
79.1341
78.6700
78.2059
77.7418
77.2778
76.8137
76.3496
75.8855
75.4214
74.9573
74.4932
74.0291
73.5650
73.1009
72.6368
72.1727
71.7086
71.2445
70.7805
70.3164
69.8523
69.3882
68.9241
68.4600
67.9959
67.5318
67.0677
66.6036
66.1395
65.6754
65.2113
64.7472
64.2831
63.8190
63.3549
62.8908
62.4267
61.9626
61.4985
61.0344
60.5703
60.1062
59.6421
59.1780
58.7139
58.2498
57.7857
57.3215
56.8574
56.3933
55.9292
55.4651
55.0009
54.5368
54.0727
53.6085
53.1444
52.6802
52.2161
51.7519
51.2878
50.8236
50.3594
49.8953
49.4311
48.9669
48.5027
48.0385
47.5743
47.1102
46.6460
46.1818
45.7176
45.2534
44.7892
44.3250
43.8609
43.3967
42.9326
42.4684
42.0043
41.5403
41.0762
40.6122
40.1482
39.6843
39.2205
38.7567
38.2929
37.8293
37.3658
36.9024
36.4391
35.9759
35.5129
35.0501
34.5875
34.1251
33.6629
33.2010
32.7394
32.2782
31.8173
31.3567
30.8966
30.4370
29.9779
29.5193
29.0613
28.6040
28.1474
27.6915
27.2364
26.7822
26.3290
25.8768
25.4256
24.9756
24.5269
24.0794
23.6334
23.1889
22.7459
22.3046
21.8651
21.4274
20.9918
20.5582
20.1268
19.6977
19.2711
18.8470
18.4255
18.0069
17.5911
17.1784
16.7688
16.3626
15.9597
15.5604
15.1648
14.7730
14.3851
14.0013
13.6216
13.2463
12.8755
12.5092
12.1476
11.7908
11.4390
11.0922
10.7506
10.4142
10.0831
9.7576
9.4376
9.1232
8.8145
8.5117
8.2147
7.9237
7.6386
7.3596
7.0867
6.8200
6.5594
6.3050
6.0569
5.8149
5.5792
5.3498
5.1265
4.9095
4.6987
4.4941
4.2956
4.1032
3.9168
3.7365
3.5622
3.3939
3.2317
3.0756
2.9261
2.7837
2.6495
2.5256
2.4160
2.3273
2.2720
119.9251
119.9251
120.0105
120.2114
120.5370
120.9616
121.4250
121.8602
122.2169
122.4687
122.6098
122.6471
122.5940
122.4653
122.2749
122.0349
121.7553
121.4438
121.1067
120.7488
120.3741
119.9855
119.5854
119.1757
118.7580
118.3335
117.9034
117.4684
117.0294
116.5868
116.1413
115.6932
115.2429
114.7907
114.3370
113.8818
113.4254
112.9680
112.5097
112.0507
111.5910
111.1307
110.6699
110.2087
109.7471
109.2852
108.8230
108.3605
107.8979
107.4350
106.9720
106.5089
106.0456
105.5823
105.1188
104.6553
104.1917
103.7280
103.2643
102.8005
102.3367
101.8729
101.4090
100.9451
100.4812
100.0172
99.5533
99.0893
98.6253
98.1613
97.6973
97.2332
96.7692
96.3052
95.8411
95.3771
94.9130
94.4490
93.9849
93.5208
93.0567
92.5927
92.1286
91.6645
91.2004
90.7364
90.2723
89.8082
89.3441
88.8800
88.4159
87.9518
87.4878
87.0237
86.5596
86.0955
85.6314
85.1673
84.7032
84.2391
83.7750
83.3109
82.8469
82.3828
81.9187
81.4546
80.9905
80.5264
80.0623
79.5982
79.1341
78.6700
78.2059
77.7418
77.2778
76.8137
76.3496
75.8855
75.4214
74.9573
74.4932
74.0291
73.5650
73.1009
72.6368
72.1727
71.7086
71.2445
70.7805
70.3164
69.8523
69.3882
68.9241
68.4600
67.9959
67.5318
67.0677
66.6036
66.1395
65.6754
65.2113
64.7472
64.2831
63.8190
63.3549
62.8908
62.4267
61.9626
61.4985
61.0344
60.5703
60.1062
59.6421
59.1780
58.7139
58.2498
57.7857
57.3215
56.8574
56.3933
55.9292
55.4651
55.0009
54.5368
54.0727
53.6085
53.1444
52.6802
52.2161
51.7519
51.2878
50.8236
50.3594
49.8953
49.4311
48.9669
48.5027
48.0385
47.5743
47.1102
46.6460
46.1818
45.7176
45.2534
44.7892
44.3250
43.8609
43.3967
42.9326
42.4684
42.0043
41.5403
41.0762
40.6122
40.1482
39.6843
39.2205
38.7567
38.2929
37.8293
37.3658
36.9024
36.4391
35.9759
35.5129
35.0501
34.5875
34.1251
33.6629
33.2010
32.7394
32.2782
31.8173
31.3567
30.8966
30.4370
29.9779
29.5193
29.0613
28.6040
28.1474
27.6915
27.2364
26.7822
26.3290
25.8768
25.4256
24.9756
24.5269
24.0794
23.6334
23.1889
22.7459
22.3046
21.8651
21.4274
20.9918
20.5582
20.1268
19.6977
19.2711
18.8470
18.4255
18.0069
17.5911
17.1784
16.7688
16.3626
15.9597
15.5604
15.1648
14.7730
14.3851
14.0013
13.6216
13.2463
12.8755
12.5092
12.1476
11.7908
11.4390
11.0922
10.7506
10.4142
10.0831
9.7576
9.4376
9.1232
8.8145
8.5117
8.2147
7.9237
7.6386
7.3596
7.0867
6.8200
6.5594
6.3050
6.0569
5.8149
5.5792
5.3498
5.1265
4.9095
4.6987
4.4941
4.2956
4.1032
3.9168
3.7365
3.5622
3.3939
3.2317
3.0756
2.9261
2.7837
2.6495
2.5256
2.4160
2.3273
2.2720
121.4936
121.4936
121.6719
122.0904
122.7596
123.5940
124.4190
125.0797
125.4980
125.6662
125.6181
125.4025
125.0672
124.6521
124.1870
123.6933
123.1850
122.6711
122.1572
121.6462
121.1396
120.6380
120.1414
119.6496
119.1619
118.6781
118.1974
117.7195
117.2439
116.7703
116.2984
115.8278
115.3583
114.8898
114.4220
113.9549
113.4884
113.0222
112.5565
112.0910
111.6258
111.1607
110.6959
110.2312
109.7665
109.3020
108.8376
108.3732
107.9089
107.4446
106.9803
106.5161
106.0519
105.5877
105.1236
104.6594
104.1953
103.7312
103.2670
102.8029
102.3388
101.8747
101.4106
100.9465
100.4824
100.0183
99.5542
99.0901
98.6260
98.1619
97.6978
97.2337
96.7696
96.3055
95.8414
95.3774
94.9133
94.4492
93.9851
93.5210
93.0569
92.5928
92.1287
91.6646
91.2005
90.7364
90.2723
89.8083
89.3442
88.8801
88.4160
87.9519
87.4878
87.0237
86.5596
86.0955
85.6314
85.1673
84.7032
84.2391
83.7750
83.3110
82.8469
82.3828
81.9187
81.4546
80.9905
80.5264
80.0623
79.5982
79.1341
78.6700
78.2059
77.7418
77.2778
76.8137
76.3496
75.8855
75.4214
74.9573
74.4932
74.0291
73.5650
73.1009
72.6368
72.1727
71.7086
71.2445
70.7805
70.3164
69.8523
69.3882
68.9241
68.4600
67.9959
67.5318
67.0677
66.6036
66.1395
65.6754
65.2113
64.7472
64.2831
63.8190
63.3549
62.8908
62.4267
61.9626
61.4985
61.0344
60.5703
60.1062
59.6421
59.1780
58.7139
58.2498
57.7857
57.3215
56.8574
56.3933
55.9292
55.4651
55.0009
54.5368
54.0727
53.6085
53.1444
52.6802
52.2161
51.7519
51.2878
50.8236
50.3594
49.8953
49.4311
48.9669
48.5027
48.0385
47.5743
47.1102
46.6460
46.1818
45.7176
45.2534
44.7892
44.3250
43.8609
43.3967
42.9326
42.4684
42.0043
41.5403
41.0762
40.6122
40.1482
39.6843
39.2205
38.7567
38.2929
37.8293
37.3658
36.9024
36.4391
35.9759
35.5129
35.0501
34.5875
34.1251
33.6629
33.2010
32.7394
32.2782
31.8173
31.3567
30.8966
30.4370
29.9779
29.5193
29.0613
28.6040
28.1474
27.6915
27.2364
26.7822
26.3290
25.8768
25.4256
24.9756
24.5269
24.0794
23.6334
23.1889
22.7459
22.3046
21.8651
21.4274
20.9918
20.5582
20.1268
19.6977
19.2711
18.8470
18.4255
18.0069
17.5911
17.1784
16.7688
16.3626
15.9597
15.5604
15.1648
14.7730
14.3851
14.0013
13.6216
13.2463
12.8755
12.5092
12.1476
11.7908
11.4390
11.0922
10.7506
10.4142
10.0831
9.7576
9.4376
9.1232
8.8145
8.5117
8.2147
7.9237
7.6386
7.3596
7.0867
6.8200
6.5594
6.3050
6.0569
5.8149
5.5792
5.3498
5.1265
4.9095
4.6987
4.4941
4.2956
4.1032
3.9168
3.7365
3.5622
3.3939
3.2317
3.0756
2.9261
2.7837
2.6495
2.5256
2.4160
2.3273
2.2720
124.3209
124.3209
124.7223
125.6717
127.1898
129.0156
130.6057
131.6134
131.9732
131.7881
131.2153
130.4015
129.4602
128.4696
127.4793
126.5178
125.5999
124.7313
123.9123
123.1403
122.4113
121.7205
121.0631
120.4347
119.8312
119.2490
118.6848
118.1360
117.6001
117.0752
116.5596
116.0518
115.5506
115.0550
114.5641
114.0772
113.5936
113.1130
112.6347
112.1586
111.6841
111.2112
110.7396
110.2690
109.7993
109.3304
108.8622
108.3946
107.9274
107.4607
106.9944
106.5283
106.0625
105.5970
105.1316
104.6665
104.2014
103.7365
103.2717
102.8070
102.3424
101.8778
101.4133
100.9489
100.4845
100.0201
99.5558
99.0915
98.6272
98.1630
97.6988
97.2346
96.7704
96.3062
95.8420
95.3778
94.9137
94.4495
93.9854
93.5213
93.0572
92.5930
92.1289
91.6648
91.2007
90.7366
90.2725
89.8084
89.3443
88.8801
88.4160
87.9519
87.4878
87.0237
86.5596
86.0956
85.6315
85.1674
84.7033
84.2392
83.7751
83.3110
82.8469
82.3828
81.9187
81.4546
80.9905
80.5264
80.0623
79.5982
79.1341
78.6700
78.2059
77.7419
77.2778
76.8137
76.3496
75.8855
75.4214
74.9573
74.4932
74.0291
73.5650
73.1009
72.6368
72.1727
71.7086
71.2445
70.7805
70.3164
69.8523
69.3882
68.9241
68.4600
67.9959
67.5318
67.0677
66.6036
66.1395
65.6754
65.2113
64.7472
64.2831
63.8190
63.3549
62.8908
62.4267
61.9626
61.4985
61.0344
60.5703
60.1062
59.6421
59.1780
58.7139
58.2498
57.7857
57.3215
56.8574
56.3933
55.9292
55.4651
55.0009
54.5368
54.0727
53.6085
53.1444
52.6802
52.2161
51.7519
51.2878
50.8236
50.3594
49.8953
49.4311
48.9669
48.5027
48.0385
47.5743
47.1102
46.6460
46.1818
45.7176
45.2534
44.7892
44.3250
43.8609
43.3967
42.9326
42.4684
42.0043
41.5403
41.0762
40.6122
40.1482
39.6843
39.2205
38.7567
38.2929
37.8293
37.3658
36.9024
36.4391
35.9759
35.5129
35.0501
34.5875
34.1251
33.6629
33.2010
32.7394
32.2782
31.8173
31.3567
30.8966
30.4370
29.9779
29.5193
29.0613
28.6040
28.1474
27.6915
27.2364
26.7822
26.3290
25.8768
25.4256
24.9756
24.5269
24.0794
23.6334
23.1889
22.7459
22.3046
21.8651
21.4274
20.9918
20.5582
20.1268
19.6977
19.2711
18.8470
18.4255
18.0069
17.5911
17.1784
16.7688
16.3626
15.9597
15.5604
15.1648
14.7730
14.3851
14.0013
13.6216
13.2463
12.8755
12.5092
12.1476
11.7908
11.4390
11.0922
10.7506
10.4142
10.0831
9.7576
9.4376
9.1232
8.8145
8.5117
8.2147
7.9237
7.6386
7.3596
7.0867
6.8200
6.5594
6.3050
6.0569
5.8149
5.5792
5.3498
5.1265
4.9095
4.6987
4.4941
4.2956
4.1032
3.9168
3.7365
3.5622
3.3939
3.2317
3.0756
2.9261
2.7837
2.6495
2.5256
2.4160
2.3273
2.2720
129.0742
129.0742
129.9936
132.2160
135.8466
140.1258
143.2022
144.4557
144.1543
142.8240
140.9344
138.8157
136.6713
134.6140
132.6984
130.9444
129.3523
127.9125
126.6105
125.4304
124.3566
123.3745
122.4708
121.6340
120.8539
120.1220
119.4308
118.7741
118.1465
117.5435
116.9613
116.3967
115.8470
115.3099
114.7836
114.2663
113.7567
113.2537
112.7563
112.2636
111.7750
111.2899
110.8077
110.3280
109.8505
109.3749
108.9008
108.4281
107.9566
107.4861
107.0164
106.5475
106.0793
105.6116
105.1443
104.6775
104.2111
103.7450
103.2791
102.8134
102.3480
101.8827
101.4176
100.9526
100.4878
100.0230
99.5583
99.0937
98.6292
98.1647
97.7003
97.2359
96.7715
96.3072
95.8429
95.3786
94.9144
94.4502
93.9859
93.5217
93.0576
92.5934
92.1292
91.6651
91.2009
90.7368
90.2727
89.8085
89.3444
88.8803
88.4162
87.9520
87.4879
87.0238
86.5597
86.0956
85.6315
85.1674
84.7033
84.2392
83.7751
83.3110
82.8469
82.3828
81.9187
81.4546
80.9905
80.5264
80.0623
79.5982
79.1341
78.6700
78.2060
77.7419
77.2778
76.8137
76.3496
75.8855
75.4214
74.9573
74.4932
74.0291
73.5650
73.1009
72.6368
72.1727
71.7086
71.2445
70.7805
70.3164
69.8523
69.3882
68.9241
68.4600
67.9959
67.5318
67.0677
66.6036
66.1395
65.6754
65.2113
64.7472
64.2831
63.8190
63.3549
62.8908
62.4267
61.9626
61.4985
61.0344
60.5703
60.1062
59.6421
59.1780
58.7139
58.2498
57.7857
57.3215
56.8574
56.3933
55.9292
55.4651
55.0009
54.5368
54.0727
53.6085
53.1444
52.6802
52.2161
51.7519
51.2878
50.8236
50.3594
49.8953
49.4311
48.9669
48.5027
48.0385
47.5743
47.1102
46.6460
46.1818
45.7176
45.2534
44.7892
44.3250
43.8609
43.3967
42.9326
42.4684
42.0043
41.5403
41.0762
40.6122
40.1482
39.6843
39.2205
38.7567
38.2929
37.8293
37.3658
36.9024
36.4391
35.9759
35.5129
35.0501
34.5875
34.1251
33.6629
33.2010
32.7394
32.2782
31.8173
31.3567
30.8966
30.4370
29.9779
29.5193
29.0613
28.6040
28.1474
27.6915
27.2364
26.7822
26.3290
25.8768
25.4256
24.9756
24.5269
24.0794
23.6334
23.1889
22.7459
22.3046
21.8651
21.4274
20.9918
20.5582
20.1268
19.6977
19.2711
18.8470
18.4255
18.0069
17.5911
17.1784
16.7688
16.3626
15.9597
15.5604
15.1648
14.7730
14.3851
14.0013
13.6216
13.2463
12.8755
12.5092
12.1476
11.7908
11.4390
11.0922
10.7506
10.4142
10.0831
9.7576
9.4376
9.1232
8.8145
8.5117
8.2147
7.9237
7.6386
7.3596
7.0867
6.8200
6.5594
6.3050
6.0569
5.8149
5.5792
5.3498
5.1265
4.9095
4.6987
4.4941
4.2956
4.1032
3.9168
3.7365
3.5622
3.3939
3.2317
3.0756
2.9261
2.7837
2.6495
2.5256
2.4160
2.3273
2.2720
136.5975
136.5975
138.6674
143.8794
152.8715
163.6489
169.0322
169.1484
166.0927
161.6102
156.7470
152.0351
147.7062
143.8350
140.4202
137.4269
134.8082
132.5153
130.5022
128.7274
127.1548
125.7533
124.4962
123.3609
122.3282
121.3823
120.5093
119.6981
118.9389
118.2238
117.5459
116.8995
116.2798
115.6829
115.1052
114.5438
113.9964
113.4609
112.9355
112.4187
111.9094
111.4063
110.9086
110.4156
109.9266
109.4409
108.9582
108.4781
108.0001
107.5239
107.0494
106.5763
106.1043
105.6334
105.1634
104.6942
104.2256
103.7577
103.2902
102.8231
102.3565
101.8902
101.4241
100.9583
100.4928
100.0274
99.5622
99.0971
98.6321
98.1673
97.7025
97.2379
96.7733
96.3087
95.8442
95.3798
94.9154
94.4511
93.9867
93.5225
93.0582
92.5939
92.1297
91.6655
91.2013
90.7371
90.2729
89.8088
89.3446
88.8805
88.4163
87.9522
87.4881
87.0239
86.5598
86.0957
85.6316
85.1675
84.7034
84.2393
83.7752
83.3110
82.8469
82.3828
81.9187
81.4546
80.9905
80.5264
80.0623
79.5983
79.1342
78.6701
78.2060
77.7419
77.2778
76.8137
76.3496
75.8855
75.4214
74.9573
74.4932
74.0291
73.5650
73.1009
72.6368
72.1727
71.7086
71.2445
70.7805
70.3164
69.8523
69.3882
68.9241
68.4600
67.9959
67.5318
67.0677
66.6036
66.1395
65.6754
65.2113
64.7472
64.2831
63.8190
63.3549
62.8908
62.4267
61.9626
61.4985
61.0344
60.5703
60.1062
59.6421
59.1780
58.7139
58.2498
57.7857
57.3215
56.8574
56.3933
55.9292
55.4651
55.0009
54.5368
54.0727
53.6085
53.1444
52.6802
52.2161
51.7519
51.2878
50.8236
50.3594
49.8953
49.4311
48.9669
48.5027
48.0385
47.5743
47.1102
46.6460
46.1818
45.7176
45.2534
44.7892
44.3250
43.8609
43.3967
42.9326
42.4684
42.0043
41.5403
41.0762
40.6122
40.1482
39.6843
39.2205
38.7567
38.2929
37.8293
37.3658
36.9024
36.4391
35.9759
35.5129
35.0501
34.5875
34.1251
33.6629
33.2010
32.7394
32.2782
31.8173
31.3567
30.8966
30.4370
29.9779
29.5193
29.0613
28.6040
28.1474
27.6915
27.2364
26.7822
26.3290
25.8768
25.4256
24.9756
24.5269
24.0794
23.6334
23.1889
22.7459
22.3046
21.8651
21.4274
20.9918
20.5582
20.1268
19.6977
19.2711
18.8470
18.4255
18.0069
17.5911
17.1784
16.7688
16.3626
15.9597
15.5604
15.1648
14.7730
14.3851
14.0013
13.6216
13.2463
12.8755
12.5092
12.1476
11.7908
11.4390
11.0922
10.7506
10.4142
10.0831
9.7576
9.4376
9.1232
8.8145
8.5117
8.2147
7.9237
7.6386
7.3596
7.0867
6.8200
6.5594
6.3050
6.0569
5.8149
5.5792
5.3498
5.1265
4.9095
4.6987
4.4941
4.2956
4.1032
3.9168
3.7365
3.5622
3.3939
3.2317
3.0756
2.9261
2.7837
2.6495
2.5256
2.4160
2.3273
2.2720
147.6987
147.6987
152.1244
164.0232
186.8362
217.1481
222.5286
214.8837
203.1382
191.2194
180.4790
171.2155
163.3535
156.7107
151.0941
146.3303
142.2728
138.7999
135.8119
133.2266
130.9768
129.0069
127.2712
125.7315
124.3564
123.1198
121.9997
120.9779
120.0390
119.1704
118.3611
117.6022
116.8861
116.2063
115.5575
114.9349
114.3349
113.7539
113.1894
112.6389
112.1003
111.5721
111.0526
110.5408
110.0354
109.5356
109.0406
108.5498
108.0626