# vtk DataFile Version 5.0
Example 3D regular grid VTK file.
ASCII
DATASET UNSTRUCTURED_GRID
POINTS 90601 float
0 0 0
0 10 0
0 20 0
0 30 0
0 40 0
0 50 0
0 60 0
0 70 0
0 80 0
0 90 0
0 100 0
0 110 0
0 120 0
0 130 0
0 140 0
0 150 0
0 160 0
0 170 0
0 180 0
0 190 0
0 200 0
0 210 0
0 220 0
0 230 0
0 240 0
0 250 0
0 260 0
0 270 0
0 280 0
0 290 0
0 300 0
0 310 0
0 320 0
0 330 0
0 340 0
0 350 0
0 360 0
0 370 0
0 380 0
0 390 0
0 400 0
0 410 0
0 420 0
0 430 0
0 440 0
0 450 0
0 460 0
0 470 0
0 480 0
0 490 0
0 500 0
0 510 0
0 520 0
0 530 0
0 540 0
0 550 0
0 560 0
0 570 0
0 580 0
0 590 0
0 600 0
0 610 0
0 620 0
0 630 0
0 640 0
0 650 0
0 660 0
0 670 0
0 680 0
0 690 0
0 700 0
0 710 0
0 720 0
0 730 0
0 740 0
0 750 0
0 760 0
0 770 0
0 780 0
0 790 0
0 800 0
0 810 0
0 820 0
0 830 0
0 840 0
0 850 0
0 860 0
0 870 0
0 880 0
0 890 0
0 900 0
0 910 0
0 920 0
0 930 0
0 940 0
0 950 0
0 960 0
0 970 0
0 980 0
0 990 0
0 1000 0
0 1010 0
0 1020 0
0 1030 0
0 1040 0
0 1050 0
0 1060 0
0 1070 0
0 1080 0
0 1090 0
0 1100 0
0 1110 0
0 1120 0
0 1130 0
0 1140 0
0 1150 0
0 1160 0
0 1170 0
0 1180 0
0 1190 0
0 1200 0
0 1210 0
0 1220 0
0 1230 0
0 1240 0
0 1250 0
0 1260 0
0 1270 0
0 1280 0
0 1290 0
0 1300 0
0 1310 0
0 1320 0
0 1330 0
0 1340 0
0 1350 0
0 1360 0
0 1370 0
0 1380 0
0 1390 0
0 1400 0
0 1410 0
0 1420 0
0 1430 0
0 1440 0
0 1450 0
0 1460 0
0 1470 0
0 1480 0
0 1490 0
0 1500 0
0 1510 0
0 1520 0
0 1530 0
0 1540 0
0 1550 0
0 1560 0
0 1570 0
0 1580 0
0 1590 0
0 1600 0
0 1610 0
0 1620 0
0 1630 0
0 1640 0
0 1650 0
0 1660 0
0 1670 0
0 1680 0
0 1690 0
0 1700 0
0 1710 0
0 1720 0
0 1730 0
0 1740 0
0 1750 0
0 1760 0
0 1770 0
0 1780 0
0 1790 0
0 1800 0
0 1810 0
0 1820 0
0 1830 0
0 1840 0
0 1850 0
0 1860 0
0 1870 0
0 1880 0
0 1890 0
0 1900 0
0 1910 0
0 1920 0
0 1930 0
0 1940 0
0 1950 0
0 1960 0
0 1970 0
0 1980 0
0 1990 0
0 2000 0
0 2010 0
0 2020 0
0 2030 0
0 2040 0
0 2050 0
0 2060 0
0 2070 0
0 2080 0
0 2090 0
0 2100 0
0 2110 0
0 2120 0
0 2130 0
0 2140 0
0 2150 0
0 2160 0
0 2170 0
0 2180 0
0 2190 0
0 2200 0
0 2210 0
0 2220 0
0 2230 0
0 2240 0
0 2250 0
0 2260 0
0 2270 0
0 2280 0
0 2290 0
0 2300 0
0 2310 0
0 2320 0
0 2330 0
0 2340 0
0 2350 0
0 2360 0
0 2370 0
0 2380 0
0 2390 0
0 2400 0
0 2410 0
0 2420 0
0 2430 0
0 2440 0
0 2450 0
0 2460 0
0 2470 0
0 2480 0
0 2490 0
0 2500 0
0 2510 0
0 2520 0
0 2530 0
0 2540 0
0 2550 0
0 2560 0
0 2570 0
0 2580 0
0 2590 0
0 2600 0
0 2610 0
0 2620 0
0 2630 0
0 2640 0
0 2650 0
0 2660 0
0 2670 0
0 2680 0
0 2690 0
0 2700 0
0 2710 0
0 2720 0
0 2730 0
0 2740 0
0 2750 0
0 2760 0
0 2770 0
0 2780 0
0 2790 0
0 2800 0
0 2810 0
0 2820 0
0 2830 0
0 2840 0
0 2850 0
0 2860 0
0 2870 0
0 2880 0
0 2890 0
0 2900 0
0 2910 0
0 2920 0
0 2930 0
0 2940 0
0 2950 0
0 2960 0
0 2970 0
0 2980 0
0 2990 0
0 3000 0
10 0 0
10 10 0
10 20 0
10 30 0
10 40 0
10 50 0
10 60 0
10 70 0
10 80 0
10 90 0
10 100 0
10 110 0
10 120 0
10 130 0
10 140 0
10 150 0
10 160 0
10 170 0
10 180 0
10 190 0
10 200 0
10 210 0
10 220 0
10 230 0
10 240 0
10 250 0
10 260 0
10 270 0
10 280 0
10 290 0
10 300 0
10 310 0
10 320 0
10 330 0
10 340 0
10 350 0
10 360 0
10 370 0
10 380 0
10 390 0
10 400 0
10 410 0
10 420 0
10 430 0
10 440 0
10 450 0
10 460 0
10 470 0
10 480 0
10 490 0
10 500 0
10 510 0
10 520 0
10 530 0
10 540 0
10 550 0
10 560 0
10 570 0
10 580 0
10 590 0
10 600 0
10 610 0
10 620 0
10 630 0
10 640 0
10 650 0
10 660 0
10 670 0
10 680 0
10 690 0
10 700 0
10 710 0
10 720 0
10 730 0
10 740 0
10 750 0
10 760 0
10 770 0
10 780 0
10 790 0
10 800 0
10 810 0
10 820 0
10 830 0
10 840 0
10 850 0
10 860 0
10 870 0
10 880 0
10 890 0
10 900 0
10 910 0
10 920 0
10 930 0
10 940 0
10 950 0
10 960 0
10 970 0
10 980 0
10 990 0
10 1000 0
10 1010 0
10 1020 0
10 1030 0
10 1040 0
10 1050 0
10 1060 0
10 1070 0
10 1080 0
10 1090 0
10 1100 0
10 1110 0
10 1120 0
10 1130 0
10 1140 0
10 1150 0
10 1160 0
10 1170 0
10 1180 0
10 1190 0
10 1200 0
10 1210 0
10 1220 0
10 1230 0
10 1240 0
10 1250 0
10 1260 0
10 1270 0
10 1280 0
10 1290 0
10 1300 0
10 1310 0
10 1320 0
10 1330 0
10 1340 0
10 1350 0
10 1360 0
10 1370 0
10 1380 0
10 1390 0
10 1400 0
10 1410 0
10 1420 0
10 1430 0
10 1440 0
10 1450 0
10 1460 0
10 1470 0
10 1480 0
10 1490 0
10 1500 0
10 1510 0
10 1520 0
10 1530 0
10 1540 0
10 1550 0
10 1560 0
10 1570 0
10 1580 0
10 1590 0
10 1600 0
10 1610 0
10 1620 0
10 1630 0
10 1640 0
10 1650 0
10 1660 0
10 1670 0
10 1680 0
10 1690 0
10 1700 0
10 1710 0
10 1720 0
10 1730 0
10 1740 0
10 1750 0
10 1760 0
10 1770 0
10 1780 0
10 1790 0
10 1800 0
10 1810 0
10 1820 0
10 1830 0
10 1840 0
10 1850 0
10 1860 0
10 1870 0
10 1880 0
10 1890 0
10 1900 0
10 1910 0
10 1920 0
10 1930 0
10 1940 0
10 1950 0
10 1960 0
10 1970 0
10 1980 0
10 1990 0
10 2000 0
10 2010 0
10 2020 0
10 2030 0
10 2040 0
10 2050 0
10 2060 0
10 2070 0
10 2080 0
10 2090 0
10 2100 0
10 2110 0
10 2120 0
10 2130 0
10 2140 0
10 2150 0
10 2160 0
10 2170 0
10 2180 0
10 2190 0
10 2200 0
10 2210 0
10 2220 0
10 2230 0
10 2240 0
10 2250 0
10 2260 0
10 2270 0
10 2280 0
10 2290 0
10 2300 0
10 2310 0
10 2320 0
10 2330 0
10 2340 0
10 2350 0
10 2360 0
10 2370 0
10 2380 0
10 2390 0
10 2400 0
10 2410 0
10 2420 0
10 2430 0
10 2440 0
10 2450 0
10 2460 0
10 2470 0
10 2480 0
10 2490 0
10 2500 0
10 2510 0
10 2520 0
10 2530 0
10 2540 0
10 2550 0
10 2560 0
10 2570 0
10 2580 0
10 2590 0
10 2600 0
10 2610 0
10 2620 0
10 2630 0
10 2640 0
10 2650 0
10 2660 0
10 2670 0
10 2680 0
10 2690 0
10 2700 0
10 2710 0
10 2720 0
10 2730 0
10 2740 0
10 2750 0
10 2760 0
10 2770 0
10 2780 0
10 2790 0
10 2800 0
10 2810 0
10 2820 0
10 2830 0
10 2840 0
10 2850 0
10 2860 0
10 2870 0
10 2880 0
10 2890 0
10 2900 0
10 2910 0
10 2920 0
10 2930 0
10 2940 0
10 2950 0
10 2960 0
10 2970 0
10 2980 0
10 2990 0
10 3000 0
20 0 0
20 10 0
20 20 0
20 30 0
20 40 0
20 50 0
20 60 0
20 70 0
20 80 0
20 90 0
20 100 0
20 110 0
20 120 0
20 130 0
20 140 0
20 150 0
20 160 0
20 170 0
20 180 0
20 190 0
20 200 0
20 210 0
20 220 0
20 230 0
20 240 0
20 250 0
20 260 0
20 270 0
20 280 0
20 290 0
20 300 0
20 310 0
20 320 0
20 330 0
20 340 0
20 350 0
20 360 0
20 370 0
20 380 0
20 390 0
20 400 0
20 410 0
20 420 0
20 430 0
20 440 0
20 450 0
20 460 0
20 470 0
20 480 0
20 490 0
20 500 0
20 510 0
20 520 0
20 530 0
20 540 0
20 550 0
20 560 0
20 570 0
20 580 0
20 590 0
20 600 0
20 610 0
20 620 0
20 630 0
20 640 0
20 650 0
20 660 0
20 670 0
20 680 0
20 690 0
20 700 0
20 710 0
20 720 0
20 730 0
20 740 0
20 750 0
20 760 0
20 770 0
20 780 0
20 790 0
20 800 0
20 810 0
20 820 0
20 830 0
20 840 0
20 850 0
20 860 0
20 870 0
20 880 0
20 890 0
20 900 0
20 910 0
20 920 0
20 930 0
20 940 0
20 950 0
20 960 0
20 970 0
20 980 0
20 990 0
20 1000 0
20 1010 0
20 1020 0
20 1030 0
20 1040 0
20 1050 0
20 1060 0
20 1070 0
20 1080 0
20 1090 0
20 1100 0
20 1110 0
20 1120 0
20 1130 0
20 1140 0
20 1150 0
20 1160 0
20 1170 0
20 1180 0
20 1190 0
20 1200 0
20 1210 0
20 1220 0
20 1230 0
20 1240 0
20 1250 0
20 1260 0
20 1270 0
20 1280 0
20 1290 0
20 1300 0
20 1310 0
20 1320 0
20 1330 0
20 1340 0
20 1350 0
20 1360 0
20 1370 0
20 1380 0
20 1390 0
20 1400 0
20 1410 0
20 1420 0
20 1430 0
20 1440 0
20 1450 0
20 1460 0
20 1470 0
20 1480 0
20 1490 0
20 1500 0
20 1510 0
20 1520 0
20 1530 0
20 1540 0
20 1550 0
20 1560 0
20 1570 0
20 1580 0
20 1590 0
20 1600 0
20 1610 0
20 1620 0
20 1630 0
20 1640 0
20 1650 0
20 1660 0
20 1670 0
20 1680 0
20 1690 0
20 1700 0
20 1710 0
20 1720 0
20 1730 0
20 1740 0
20 1750 0
20 1760 0
20 1770 0
20 1780 0
20 1790 0
20 1800 0
20 1810 0
20 1820 0
20 1830 0
20 1840 0
20 1850 0
20 1860 0
20 1870 0
20 1880 0
20 1890 0
20 1900 0
20 1910 0
20 1920 0
20 1930 0
20 1940 0
20 1950 0
20 1960 0
20 1970 0
20 1980 0
20 1990 0
20 2000 0
20 2010 0
20 2020 0
20 2030 0
20 2040 0
20 2050 0
20 2060 0
20 2070 0
20 2080 0
20 2090 0
20 2100 0
20 2110 0
20 2120 0
20 2130 0
20 2140 0
20 2150 0
20 2160 0
20 2170 0
20 2180 0
20 2190 0
20 2200 0
20 2210 0
20 2220 0
20 2230 0
20 2240 0
20 2250 0
20 2260 0
20 2270 0
20 2280 0
20 2290 0
20 2300 0
20 2310 0
20 2320 0
20 2330 0
20 2340 0
20 2350 0
20 2360 0
20 2370 0
20 2380 0
20 2390 0
20 2400 0
20 2410 0
20 2420 0
20 2430 0
20 2440 0
20 2450 0
20 2460 0
20 2470 0
20 2480 0
20 2490 0
20 2500 0
20 2510 0
20 2520 0
20 2530 0
20 2540 0
20 2550 0
20 2560 0
20 2570 0
20 2580 0
20 2590 0
20 2600 0
20 2610 0
20 2620 0
20 2630 0
20 2640 0
20 2650 0
20 2660 0
20 2670 0
20 2680 0
20 2690 0
20 2700 0
20 2710 0
20 2720 0
20 2730 0
20 2740 0
20 2750 0
20 2760 0
20 2770 0
20 2780 0
20 2790 0
20 2800 0
20 2810 0
20 2820 0
20 2830 0
20 2840 0
20 2850 0
20 2860 0
20 2870 0
20 2880 0
20 2890 0
20 2900 0
20 2910 0
20 2920 0
20 2930 0
20 2940 0
20 2950 0
20 2960 0
20 2970 0
20 2980 0
20 2990 0
20 3000 0
30 0 0
30 10 0
30 20 0
30 30 0
30 40 0
30 50 0
30 60 0
30 70 0
30 80 0
30 90 0
30 100 0
30 110 0
30 120 0
30 130 0
30 140 0
30 150 0
30 160 0
30 170 0
30 180 0
30 190 0
30 200 0
30 210 0
30 220 0
30 230 0
30 240 0
30 250 0
30 260 0
30 270 0
30 280 0
30 290 0
30 300 0
30 310 0
30 320 0
30 330 0
30 340 0
30 350 0
30 360 0
30 370 0
30 380 0
30 390 0
30 400 0
30 410 0
30 420 0
30 430 0
30 440 0
30 450 0
30 460 0
30 470 0
30 480 0
30 490 0
30 500 0
30 510 0
30 520 0
30 530 0
30 540 0
30 550 0
30 560 0
30 570 0
30 580 0
30 590 0
30 600 0
30 610 0
30 620 0
30 630 0
30 640 0
30 650 0
30 660 0
30 670 0
30 680 0
30 690 0
30 700 0
30 710 0
30 720 0
30 730 0
30 740 0
30 750 0
30 760 0
30 770 0
30 780 0
30 790 0
30 800 0
30 810 0
30 820 0
30 830 0
30 840 0
30 850 0
30 860 0
30 870 0
30 880 0
30 890 0
30 900 0
30 910 0
30 920 0
30 930 0
30 940 0
30 950 0
30 960 0
30 970 0
30 980 0
30 990 0
30 1000 0
30 1010 0
30 1020 0
30 1030 0
30 1040 0
30 1050 0
30 1060 0
30 1070 0
30 1080 0
30 1090 0
30 1100 0
30 1110 0
30 1120 0
30 1130 0
30 1140 0
30 1150 0
30 1160 0
30 1170 0
30 1180 0
30 1190 0
30 1200 0
30 1210 0
30 1220 0
30 1230 0
30 1240 0
30 1250 0
30 1260 0
30 1270 0
30 1280 0
30 1290 0
30 1300 0
30 1310 0
30 1320 0
30 1330 0
30 1340 0
30 1350 0
30 1360 0
30 1370 0
30 1380 0
30 1390 0
30 1400 0
30 1410 0
30 1420 0
30 1430 0
30 1440 0
30 1450 0
30 1460 0
30 1470 0
30 1480 0
30 1490 0
30 1500 0
30 1510 0
30 1520 0
30 1530 0
30 1540 0
30 1550 0
30 1560 0
30 1570 0
30 1580 0
30 1590 0
[...]
POINT_DATA 90601
SCALARS P float
LOOKUP_TABLE default
123.5686
123.5686
123.6055
123.6936
123.8416
124.0483
124.3014
124.5801
124.8598
125.1177
125.3355
125.5007
125.6066
125.6509
125.6349
125.5622
125.4375
125.2661
125.0535
124.8049
124.5250
124.2182
123.8884
123.5388
123.1724
122.7916
122.3987
121.9953
121.5832
121.1635
120.7374
120.3059
119.8697
119.4296
118.9861
118.5397
118.0908
117.6398
117.1870
116.7327
116.2770
115.8201
115.3623
114.9037
114.4443
113.9842
113.5237
113.0626
112.6012
112.1394
111.6773
111.2150
110.7524
110.2896
109.8267
109.3636
108.9004
108.4370
107.9736
107.5101
107.0465
106.5829
106.1191
105.6554
105.1916
104.7278
104.2639
103.8000
103.3361
102.8721
102.4082
101.9442
101.4802
101.0162
100.5522
100.0882
99.6241
99.1601
98.6961
98.2320
97.7679
97.3039
96.8398
96.3758
95.9117
95.4476
94.9835
94.5195
94.0554
93.5913
93.1272
92.6631
92.1990
91.7350
91.2709
90.8068
90.3427
89.8786
89.4145
88.9504
88.4863
88.0222
87.5582
87.0941
86.6300
86.1659
85.7018
85.2377
84.7736
84.3095
83.8454
83.3813
82.9172
82.4531
81.9891
81.5250
81.0609
80.5968
80.1327
79.6686
79.2045
78.7404
78.2763
77.8122
77.3481
76.8840
76.4199
75.9559
75.4918
75.0277
74.5636
74.0995
73.6354
73.1713
72.7072
72.2431
71.7790
71.3149
70.8508
70.3867
69.9226
69.4585
68.9945
68.5304
68.0663
67.6022
67.1381
66.6740
66.2099
65.7458
65.2817
64.8176
64.3535
63.8894
63.4253
62.9612
62.4971
62.0330
61.5689
61.1048
60.6407
60.1766
59.7125
59.2483
58.7842
58.3201
57.8560
57.3919
56.9278
56.4636
55.9995
55.5354
55.0712
54.6071
54.1430
53.6788
53.2147
52.7505
52.2864
51.8222
51.3581
50.8939
50.4298
49.9656
49.5014
49.0372
48.5731
48.1089
47.6447
47.1806
46.7164
46.2522
45.7881
45.3239
44.8598
44.3956
43.9315
43.4674
43.0034
42.5393
42.0753
41.6113
41.1474
40.6835
40.2197
39.7559
39.2922
38.8286
38.3651
37.9017
37.4384
36.9752
36.5122
36.0494
35.5867
35.1243
34.6621
34.2001
33.7384
33.2770
32.8159
32.3552
31.8949
31.4350
30.9756
30.5167
30.0583
29.6006
29.1434
28.6870
28.2314
27.7765
27.3225
26.8694
26.4173
25.9663
25.5164
25.0677
24.6203
24.1743
23.7297
23.2866
22.8452
22.4055
21.9676
21.5316
21.0977
20.6658
20.2362
19.8090
19.3842
18.9619
18.5423
18.1256
17.7117
17.3009
16.8933
16.4889
16.0879
15.6905
15.2967
14.9068
14.5207
14.1386
13.7608
13.3871
13.0179
12.6532
12.2931
11.9378
11.5873
11.2418
10.9014
10.5661
10.2361
9.9114
9.5922
9.2785
8.9704
8.6681
8.3714
8.0806
7.7957
7.5167
7.2436
6.9766
6.7156
6.4608
6.2120
5.9694
5.7331
5.5032
5.2797
5.0632
4.8540
4.6534
4.4631
4.2863
4.1290
4.0013
3.9214
123.5686
123.5686
123.6055
123.6936
123.8416
124.0483
124.3014
124.5801
124.8598
125.1177
125.3355
125.5007
125.6066
125.6509
125.6349
125.5622
125.4375
125.2661
125.0535
124.8049
124.5250
124.2182
123.8884
123.5388
123.1724
122.7916
122.3987
121.9953
121.5832
121.1635
120.7374
120.3059
119.8697
119.4296
118.9861
118.5397
118.0908
117.6398
117.1870
116.7327
116.2770
115.8201
115.3623
114.9037
114.4443
113.9842
113.5237
113.0626
112.6012
112.1394
111.6773
111.2150
110.7524
110.2896
109.8267
109.3636
108.9004
108.4370
107.9736
107.5101
107.0465
106.5829
106.1191
105.6554
105.1916
104.7278
104.2639
103.8000
103.3361
102.8721
102.4082
101.9442
101.4802
101.0162
100.5522
100.0882
99.6241
99.1601
98.6961
98.2320
97.7679
97.3039
96.8398
96.3758
95.9117
95.4476
94.9835
94.5195
94.0554
93.5913
93.1272
92.6631
92.1990
91.7350
91.2709
90.8068
90.3427
89.8786
89.4145
88.9504
88.4863
88.0222
87.5582
87.0941
86.6300
86.1659
85.7018
85.2377
84.7736
84.3095
83.8454
83.3813
82.9172
82.4531
81.9891
81.5250
81.0609
80.5968
80.1327
79.6686
79.2045
78.7404
78.2763
77.8122
77.3481
76.8840
76.4199
75.9559
75.4918
75.0277
74.5636
74.0995
73.6354
73.1713
72.7072
72.2431
71.7790
71.3149
70.8508
70.3867
69.9226
69.4585
68.9945
68.5304
68.0663
67.6022
67.1381
66.6740
66.2099
65.7458
65.2817
64.8176
64.3535
63.8894
63.4253
62.9612
62.4971
62.0330
61.5689
61.1048
60.6407
60.1766
59.7125
59.2483
58.7842
58.3201
57.8560
57.3919
56.9278
56.4636
55.9995
55.5354
55.0712
54.6071
54.1430
53.6788
53.2147
52.7505
52.2864
51.8222
51.3581
50.8939
50.4298
49.9656
49.5014
49.0372
48.5731
48.1089
47.6447
47.1806
46.7164
46.2522
45.7881
45.3239
44.8598
44.3956
43.9315
43.4674
43.0034
42.5393
42.0753
41.6113
41.1474
40.6835
40.2197
39.7559
39.2922
38.8286
38.3651
37.9017
37.4384
36.9752
36.5122
36.0494
35.5867
35.1243
34.6621
34.2001
33.7384
33.2770
32.8159
32.3552
31.8949
31.4350
30.9756
30.5167
30.0583
29.6006
29.1434
28.6870
28.2314
27.7765
27.3225
26.8694
26.4173
25.9663
25.5164
25.0677
24.6203
24.1743
23.7297
23.2866
22.8452
22.4055
21.9676
21.5316
21.0977
20.6658
20.2362
19.8090
19.3842
18.9619
18.5423
18.1256
17.7117
17.3009
16.8933
16.4889
16.0879
15.6905
15.2967
14.9068
14.5207
14.1386
13.7608
13.3871
13.0179
12.6532
12.2931
11.9378
11.5873
11.2418
10.9014
10.5661
10.2361
9.9114
9.5922
9.2785
8.9704
8.6681
8.3714
8.0806
7.7957
7.5167
7.2436
6.9766
6.7156
6.4608
6.2120
5.9694
5.7331
5.5032
5.2797
5.0632
4.8540
4.6534
4.4631
4.2863
4.1290
4.0013
3.9214
123.8598
123.8598
123.9086
124.0242
124.2156
124.4762
124.7831
125.1041
125.4076
125.6684
125.8703
126.0051
126.0711
126.0706
126.0085
125.8909
125.7241
125.5143
125.2674
124.9884
124.6822
124.3525
124.0030
123.6366
123.2558
122.8628
122.4594
122.0471
121.6274
121.2013
120.7697
120.3336
119.8934
119.4499
119.0035
118.5546
118.1037
117.6509
117.1965
116.7409
116.2841
115.8263
115.3676
114.9082
114.4482
113.9877
113.5266
113.0652
112.6034
112.1413
111.6790
111.2164
110.7537
110.2907
109.8276
109.3644
108.9011
108.4377
107.9742
107.5106
107.0469
106.5832
106.1195
105.6557
105.1918
104.7280
104.2641
103.8002
103.3362
102.8723
102.4083
101.9443
101.4803
101.0163
100.5523
100.0882
99.6242
99.1601
98.6961
98.2320
97.7680
97.3039
96.8398
96.3758
95.9117
95.4476
94.9835
94.5195
94.0554
93.5913
93.1272
92.6631
92.1990
91.7350
91.2709
90.8068
90.3427
89.8786
89.4145
88.9504
88.4863
88.0222
87.5582
87.0941
86.6300
86.1659
85.7018
85.2377
84.7736
84.3095
83.8454
83.3813
82.9172
82.4531
81.9891
81.5250
81.0609
80.5968
80.1327
79.6686
79.2045
78.7404
78.2763
77.8122
77.3481
76.8840
76.4199
75.9559
75.4918
75.0277
74.5636
74.0995
73.6354
73.1713
72.7072
72.2431
71.7790
71.3149
70.8508
70.3867
69.9226
69.4585
68.9945
68.5304
68.0663
67.6022
67.1381
66.6740
66.2099
65.7458
65.2817
64.8176
64.3535
63.8894
63.4253
62.9612
62.4971
62.0330
61.5689
61.1048
60.6407
60.1766
59.7125
59.2483
58.7842
58.3201
57.8560
57.3919
56.9278
56.4636
55.9995
55.5354
55.0712
54.6071
54.1430
53.6788
53.2147
52.7505
52.2864
51.8222
51.3581
50.8939
50.4298
49.9656
49.5014
49.0372
48.5731
48.1089
47.6447
47.1806
46.7164
46.2522
45.7881
45.3239
44.8598
44.3956
43.9315
43.4674
43.0034
42.5393
42.0753
41.6113
41.1474
40.6835
40.2197
39.7559
39.2922
38.8286
38.3651
37.9017
37.4384
36.9752
36.5122
36.0494
35.5867
35.1243
34.6621
34.2001
33.7384
33.2770
32.8159
32.3552
31.8949
31.4350
30.9756
30.5167
30.0583
29.6006
29.1434
28.6870
28.2314
27.7765
27.3225
26.8694
26.4173
25.9663
25.5164
25.0677
24.6203
24.1743
23.7297
23.2866
22.8452
22.4055
21.9676
21.5316
21.0977
20.6658
20.2362
19.8090
19.3842
18.9619
18.5423
18.1256
17.7117
17.3009
16.8933
16.4889
16.0879
15.6905
15.2967
14.9068
14.5207
14.1386
13.7608
13.3871
13.0179
12.6532
12.2931
11.9378
11.5873
11.2418
10.9014
10.5661
10.2361
9.9114
9.5922
9.2785
8.9704
8.6681
8.3714
8.0806
7.7957
7.5167
7.2436
6.9766
6.7156
6.4608
6.2120
5.9694
5.7331
5.5032
5.2797
5.0632
4.8540
4.6534
4.4631
4.2863
4.1290
4.0013
3.9214
124.6364
124.6364
124.7218
124.9227
125.2483
125.6729
126.1363
126.5715
126.9282
127.1800
127.3211
127.3584
127.3053
127.1766
126.9862
126.7462
126.4666
126.1551
125.8180
125.4602
125.0854
124.6968
124.2967
123.8870
123.4693
123.0448
122.6147
122.1797
121.7407
121.2981
120.8526
120.4045
119.9542
119.5020
119.0483
118.5931
118.1367
117.6793
117.2211
116.7620
116.3023
115.8420
115.3812
114.9200
114.4584
113.9965
113.5343
113.0718
112.6092
112.1463
111.6833
111.2202
110.7569
110.2936
109.8301
109.3666
108.9030
108.4393
107.9756
107.5118
107.0480
106.5842
106.1203
105.6564
105.1925
104.7285
104.2646
103.8006
103.3366
102.8726
102.4086
101.9445
101.4805
101.0165
100.5524
100.0884
99.6243
99.1603
98.6962
98.2321
97.7681
97.3040
96.8399
96.3758
95.9117
95.4477
94.9836
94.5195
94.0554
93.5913
93.1272
92.6632
92.1991
91.7350
91.2709
90.8068
90.3427
89.8786
89.4145
88.9504
88.4863
88.0223
87.5582
87.0941
86.6300
86.1659
85.7018
85.2377
84.7736
84.3095
83.8454
83.3813
82.9172
82.4532
81.9891
81.5250
81.0609
80.5968
80.1327
79.6686
79.2045
78.7404
78.2763
77.8122
77.3481
76.8840
76.4199
75.9559
75.4918
75.0277
74.5636
74.0995
73.6354
73.1713
72.7072
72.2431
71.7790
71.3149
70.8508
70.3867
69.9226
69.4585
68.9945
68.5304
68.0663
67.6022
67.1381
66.6740
66.2099
65.7458
65.2817
64.8176
64.3535
63.8894
63.4253
62.9612
62.4971
62.0330
61.5689
61.1048
60.6407
60.1766
59.7125
59.2483
58.7842
58.3201
57.8560
57.3919
56.9278
56.4636
55.9995
55.5354
55.0712
54.6071
54.1430
53.6788
53.2147
52.7505
52.2864
51.8222
51.3581
50.8939
50.4298
49.9656
49.5014
49.0372
48.5731
48.1089
47.6447
47.1806
46.7164
46.2522
45.7881
45.3239
44.8598
44.3956
43.9315
43.4674
43.0034
42.5393
42.0753
41.6113
41.1474
40.6835
40.2197
39.7559
39.2922
38.8286
38.3651
37.9017
37.4384
36.9752
36.5122
36.0494
35.5867
35.1243
34.6621
34.2001
33.7384
33.2770
32.8159
32.3552
31.8949
31.4350
30.9756
30.5167
30.0583
29.6006
29.1434
28.6870
28.2314
27.7765
27.3225
26.8694
26.4173
25.9663
25.5164
25.0677
24.6203
24.1743
23.7297
23.2866
22.8452
22.4055
21.9676
21.5316
21.0977
20.6658
20.2362
19.8090
19.3842
18.9619
18.5423
18.1256
17.7117
17.3009
16.8933
16.4889
16.0879
15.6905
15.2967
14.9068
14.5207
14.1386
13.7608
13.3871
13.0179
12.6532
12.2931
11.9378
11.5873
11.2418
10.9014
10.5661
10.2361
9.9114
9.5922
9.2785
8.9704
8.6681
8.3714
8.0806
7.7957
7.5167
7.2436
6.9766
6.7156
6.4608
6.2120
5.9694
5.7331
5.5032
5.2797
5.0632
4.8540
4.6534
4.4631
4.2863
4.1290
4.0013
3.9214
126.2049
126.2049
126.3833
126.8018
127.4709
128.3054
129.1303
129.7910
130.2093
130.3775
130.3294
130.1138
129.7785
129.3634
128.8983
128.4046
127.8963
127.3824
126.8685
126.3575
125.8509
125.3493
124.8528
124.3609
123.8733
123.3894
122.9087
122.4308
121.9552
121.4816
121.0097
120.5391
120.0696
119.6011
119.1333
118.6662
118.1997
117.7335
117.2678
116.8023
116.3371
115.8720
115.4072
114.9425
114.4778
114.0133
113.5489
113.0845
112.6202
112.1559
111.6916
111.2274
110.7632
110.2990
109.8349
109.3707
108.9066
108.4425
107.9783
107.5142
107.0501
106.5860
106.1219
105.6578
105.1937
104.7296
104.2655
103.8014
103.3373
102.8732
102.4091
101.9450
101.4809
101.0168
100.5528
100.0887
99.6246
99.1605
98.6964
98.2323
97.7682
97.3041
96.8400
96.3759
95.9118
95.4477
94.9836
94.5196
94.0555
93.5914
93.1273
92.6632
92.1991
91.7350
91.2709
90.8068
90.3427
89.8786
89.4145
88.9504
88.4864
88.0223
87.5582
87.0941
86.6300
86.1659
85.7018
85.2377
84.7736
84.3095
83.8454
83.3813
82.9172
82.4532
81.9891
81.5250
81.0609
80.5968
80.1327
79.6686
79.2045
78.7404
78.2763
77.8122
77.3481
76.8840
76.4199
75.9559
75.4918
75.0277
74.5636
74.0995
73.6354
73.1713
72.7072
72.2431
71.7790
71.3149
70.8508
70.3867
69.9226
69.4585
68.9945
68.5304
68.0663
67.6022
67.1381
66.6740
66.2099
65.7458
65.2817
64.8176
64.3535
63.8894
63.4253
62.9612
62.4971
62.0330
61.5689
61.1048
60.6407
60.1766
59.7125
59.2483
58.7842
58.3201
57.8560
57.3919
56.9278
56.4636
55.9995
55.5354
55.0712
54.6071
54.1430
53.6788
53.2147
52.7505
52.2864
51.8222
51.3581
50.8939
50.4298
49.9656
49.5014
49.0372
48.5731
48.1089
47.6447
47.1806
46.7164
46.2522
45.7881
45.3239
44.8598
44.3956
43.9315
43.4674
43.0034
42.5393
42.0753
41.6113
41.1474
40.6835
40.2197
39.7559
39.2922
38.8286
38.3651
37.9017
37.4384
36.9752
36.5122
36.0494
35.5867
35.1243
34.6621
34.2001
33.7384
33.2770
32.8159
32.3552
31.8949
31.4350
30.9756
30.5167
30.0583
29.6006
29.1434
28.6870
28.2314
27.7765
27.3225
26.8694
26.4173
25.9663
25.5164
25.0677
24.6203
24.1743
23.7297
23.2866
22.8452
22.4055
21.9676
21.5316
21.0977
20.6658
20.2362
19.8090
19.3842
18.9619
18.5423
18.1256
17.7117
17.3009
16.8933
16.4889
16.0879
15.6905
15.2967
14.9068
14.5207
14.1386
13.7608
13.3871
13.0179
12.6532
12.2931
11.9378
11.5873
11.2418
10.9014
10.5661
10.2361
9.9114
9.5922
9.2785
8.9704
8.6681
8.3714
8.0806
7.7957
7.5167
7.2436
6.9766
6.7156
6.4608
6.2120
5.9694
5.7331
5.5032
5.2797
5.0632
4.8540
4.6534
4.4631
4.2863
4.1290
4.0013
3.9214
129.0322
129.0322
129.4336
130.3830
131.9011
133.7269
135.3171
136.3247
136.6845
136.4994
135.9266
135.1128
134.1715
133.1809
132.1906
131.2291
130.3112
129.4426
128.6236
127.8516
127.1226
126.4318
125.7744
125.1460
124.5425
123.9603
123.3961
122.8473
122.3114
121.7865
121.2709
120.7631
120.2619
119.7663
119.2754
118.7885
118.3049
117.8243
117.3460
116.8699
116.3955
115.9225
115.4509
114.9803
114.5106
114.0417
113.5735
113.1059
112.6388
112.1720
111.7057
111.2396
110.7738
110.3083
109.8429
109.3778
108.9127
108.4478
107.9830
107.5183
107.0537
106.5891
106.1246
105.6602
105.1958
104.7314
104.2671
103.8028
103.3385
102.8743
102.4101
101.9459
101.4817
101.0175
100.5533
100.0892
99.6250
99.1609
98.6967
98.2326
97.7685
97.3043
96.8402
96.3761
95.9120
95.4479
94.9838
94.5197
94.0556
93.5915
93.1274
92.6633
92.1992
91.7351
91.2710
90.8069
90.3428
89.8787
89.4146
88.9505
88.4864
88.0223
87.5582
87.0941
86.6300
86.1659
85.7018
85.2377
84.7736
84.3095
83.8454
83.3813
82.9172
82.4532
81.9891
81.5250
81.0609
80.5968
80.1327
79.6686
79.2045
78.7404
78.2763
77.8122
77.3481
76.8840
76.4199
75.9559
75.4918
75.0277
74.5636
74.0995
73.6354
73.1713
72.7072
72.2431
71.7790
71.3149
70.8508
70.3867
69.9226
69.4585
68.9945
68.5304
68.0663
67.6022
67.1381
66.6740
66.2099
65.7458
65.2817
64.8176
64.3535
63.8894
63.4253
62.9612
62.4971
62.0330
61.5689
61.1048
60.6407
60.1766
59.7125
59.2483
58.7842
58.3201
57.8560
57.3919
56.9278
56.4636
55.9995
55.5354
55.0712
54.6071
54.1430
53.6788
53.2147
52.7505
52.2864
51.8222
51.3581
50.8939
50.4298
49.9656
49.5014
49.0372
48.5731
48.1089
47.6447
47.1806
46.7164
46.2522
45.7881
45.3239
44.8598
44.3956
43.9315
43.4674
43.0034
42.5393
42.0753
41.6113
41.1474
40.6835
40.2197
39.7559
39.2922
38.8286
38.3651
37.9017
37.4384
36.9752
36.5122
36.0494
35.5867
35.1243
34.6621
34.2001
33.7384
33.2770
32.8159
32.3552
31.8949
31.4350
30.9756
30.5167
30.0583
29.6006
29.1434
28.6870
28.2314
27.7765
27.3225
26.8694
26.4173
25.9663
25.5164
25.0677
24.6203
24.1743
23.7297
23.2866
22.8452
22.4055
21.9676
21.5316
21.0977
20.6658
20.2362
19.8090
19.3842
18.9619
18.5423
18.1256
17.7117
17.3009
16.8933
16.4889
16.0879
15.6905
15.2967
14.9068
14.5207
14.1386
13.7608
13.3871
13.0179
12.6532
12.2931
11.9378
11.5873
11.2418
10.9014
10.5661
10.2361
9.9114
9.5922
9.2785
8.9704
8.6681
8.3714
8.0806
7.7957
7.5167
7.2436
6.9766
6.7156
6.4608
6.2120
5.9694
5.7331
5.5032
5.2797
5.0632
4.8540
4.6534
4.4631
4.2863
4.1290
4.0013
3.9214
133.7856
133.7856
134.7049
136.9273
140.5579
144.8371
147.9135
149.1670
148.8656
147.5353
145.6457
143.5270
141.3826
139.3253
137.4097
135.6557
134.0636
132.6238
131.3218
130.1417
129.0680
128.0858
127.1821
126.3453
125.5652
124.8333
124.1421
123.4854
122.8578
122.2548
121.6726
121.1080
120.5583
120.0212
119.4949
118.9776
118.4680
117.9650
117.4676
116.9749
116.4863
116.0012
115.5190
115.0393
114.5618
114.0862
113.6121
113.1394
112.6679
112.1974
111.7277
111.2588
110.7906
110.3229
109.8557
109.3888
108.9224
108.4563
107.9904
107.5247
107.0593
106.5940
106.1289
105.6639
105.1991
104.7343
104.2696
103.8050
103.3405
102.8760
102.4116
101.9472
101.4828
101.0185
100.5542
100.0899
99.6257
99.1615
98.6972
98.2331
97.7689
97.3047
96.8405
96.3764
95.9122
95.4481
94.9840
94.5198
94.0557
93.5916
93.1275
92.6634
92.1992
91.7351
91.2710
90.8069
90.3428
89.8787
89.4146
88.9505
88.4864
88.0223
87.5582
87.0941
86.6300
86.1659
85.7018
85.2377
84.7736
84.3095
83.8454
83.3814
82.9173
82.4532
81.9891
81.5250
81.0609
80.5968
80.1327
79.6686
79.2045
78.7404
78.2763
77.8122
77.3481
76.8840
76.4199
75.9559
75.4918
75.0277
74.5636
74.0995
73.6354
73.1713
72.7072
72.2431
71.7790
71.3149
70.8508
70.3867
69.9226
69.4585
68.9945
68.5304
68.0663
67.6022
67.1381
66.6740
66.2099
65.7458
65.2817
64.8176
64.3535
63.8894
63.4253
62.9612
62.4971
62.0330
61.5689
61.1048
60.6407
60.1766
59.7125
59.2483
58.7842
58.3201
57.8560
57.3919
56.9278
56.4636
55.9995
55.5354
55.0712
54.6071
54.1430
53.6788
53.2147
52.7505
52.2864
51.8222
51.3581
50.8939
50.4298
49.9656
49.5014
49.0372
48.5731
48.1089
47.6447
47.1806
46.7164
46.2522
45.7881
45.3239
44.8598
44.3956
43.9315
43.4674
43.0034
42.5393
42.0753
41.6113
41.1474
40.6835
40.2197
39.7559
39.2922
38.8286
38.3651
37.9017
37.4384
36.9752
36.5122
36.0494
35.5867
35.1243
34.6621
34.2001
33.7384
33.2770
32.8159
32.3552
31.8949
31.4350
30.9756
30.5167
30.0583
29.6006
29.1434
28.6870
28.2314
27.7765
27.3225
26.8694
26.4173
25.9663
25.5164
25.0677
24.6203
24.1743
23.7297
23.2866
22.8452
22.4055
21.9676
21.5316
21.0977
20.6658
20.2362
19.8090
19.3842
18.9619
18.5423
18.1256
17.7117
17.3009
16.8933
16.4889
16.0879
15.6905
15.2967
14.9068
14.5207
14.1386
13.7608
13.3871
13.0179
12.6532
12.2931
11.9378
11.5873
11.2418
10.9014
10.5661
10.2361
9.9114
9.5922
9.2785
8.9704
8.6681
8.3714
8.0806
7.7957
7.5167
7.2436
6.9766
6.7156
6.4608
6.2120
5.9694
5.7331
5.5032
5.2797
5.0632
4.8540
4.6534
4.4631
4.2863
4.1290
4.0013
3.9214
141.3088
141.3088
143.3787
148.5907
157.5828
168.3602
173.7435
173.8597
170.8040
166.3215
161.4583
156.7464
152.4175
148.5463
145.1315
142.1382
139.5196
137.2266
135.2135
133.4387
131.8661
130.4646
129.2075
128.0722
127.0395
126.0936
125.2206
124.4094
123.6502
122.9351
122.2572
121.6108
120.9912
120.3942
119.8165
119.2551
118.7077
118.1722
117.6468
117.1300
116.6207
116.1176
115.6199
115.1269
114.6379
114.1522
113.6695
113.1894
112.7114
112.2352
111.7607
111.2876
110.8156
110.3447
109.8747
109.4055
108.9369
108.4690
108.0015
107.5345
107.0678
106.6015
106.1354
105.6696
105.2041
104.7387
104.2735
103.8084
103.3434
102.8786
102.4138
101.9492
101.4846
101.0200
100.5555
100.0911
99.6267
99.1624
98.6981
98.2338
97.7695
97.3052
96.8410
96.3768
95.9126
95.4484
94.9842
94.5201
94.0559
93.5918
93.1276
92.6635
92.1994
91.7353
91.2711
90.8070
90.3429
89.8788
89.4147
88.9506
88.4865
88.0224
87.5583
87.0941
86.6300
86.1659
85.7018
85.2378
84.7737
84.3096
83.8455
83.3814
82.9173
82.4532
81.9891
81.5250
81.0609
80.5968
80.1327
79.6686
79.2045
78.7404
78.2763
77.8122
77.3481
76.8840
76.4200
75.9559
75.4918
75.0277
74.5636
74.0995
73.6354
73.1713
72.7072
72.2431
71.7790
71.3149
70.8508
70.3867
69.9226
69.4585
68.9945
68.5304
68.0663
67.6022
67.1381
66.6740
66.2099
65.7458
65.2817
64.8176
64.3535
63.8894
63.4253
62.9612
62.4971
62.0330
61.5689
61.1048
60.6407
60.1766
59.7125
59.2483
58.7842
58.3201
57.8560
57.3919
56.9278
56.4636
55.9995
55.5354
55.0712
54.6071
54.1430
53.6788
53.2147
52.7505
52.2864
51.8222
51.3581
50.8939
50.4298
49.9656
49.5014
49.0372
48.5731
48.1089
47.6447
47.1806
46.7164
46.2522
45.7881
45.3239
44.8598
44.3956
43.9315
43.4674
43.0034
42.5393
42.0753
41.6113
41.1474
40.6835
40.2197
39.7559
39.2922
38.8286
38.3651
37.9017
37.4384
36.9752
36.5122
36.0494
35.5867
35.1243
34.6621
34.2001
33.7384
33.2770
32.8159
32.3552
31.8949
31.4350
30.9756
30.5167
30.0583
29.6006
29.1434
28.6870
28.2314
27.7765
27.3225
26.8694
26.4173
25.9663
25.5164
25.0677
24.6203
24.1743
23.7297
23.2866
22.8452
22.4055
21.9676
21.5316
21.0977
20.6658
20.2362
19.8090
19.3842
18.9619
18.5423
18.1256
17.7117
17.3009
16.8933
16.4889
16.0879
15.6905
15.2967
14.9068
14.5207
14.1386
13.7608
13.3871
13.0179
12.6532
12.2931
11.9378
11.5873
11.2418
10.9014
10.5661
10.2361
9.9114
9.5922
9.2785
8.9704
8.6681
8.3714
8.0806
7.7957
7.5167
7.2436
6.9766
6.7156
6.4608
6.2120
5.9694
5.7331
5.5032
5.2797
5.0632
4.8540
4.6534
4.4631
4.2863
4.1290
4.0013
3.9214
152.4100
152.4100
156.8357
168.7345
191.5475
221.8594
227.2399
219.5950
207.8495
195.9308
185.1903
175.9268
168.0648
161.4220
155.8054
151.0416
146.9841
143.5113
140.5232
137.9380
135.6881
133.7183
131.9825
130.4428
129.0678
127.8311
126.7110
125.6892
124.7503
123.8817
123.0724