# vtk DataFile Version 5.0
Example 3D regular grid VTK file.
ASCII
DATASET UNSTRUCTURED_GRID
POINTS 90601 float
0 0 0
0 10 0
0 20 0
0 30 0
0 40 0
0 50 0
0 60 0
0 70 0
0 80 0
0 90 0
0 100 0
0 110 0
0 120 0
0 130 0
0 140 0
0 150 0
0 160 0
0 170 0
0 180 0
0 190 0
0 200 0
0 210 0
0 220 0
0 230 0
0 240 0
0 250 0
0 260 0
0 270 0
0 280 0
0 290 0
0 300 0
0 310 0
0 320 0
0 330 0
0 340 0
0 350 0
0 360 0
0 370 0
0 380 0
0 390 0
0 400 0
0 410 0
0 420 0
0 430 0
0 440 0
0 450 0
0 460 0
0 470 0
0 480 0
0 490 0
0 500 0
0 510 0
0 520 0
0 530 0
0 540 0
0 550 0
0 560 0
0 570 0
0 580 0
0 590 0
0 600 0
0 610 0
0 620 0
0 630 0
0 640 0
0 650 0
0 660 0
0 670 0
0 680 0
0 690 0
0 700 0
0 710 0
0 720 0
0 730 0
0 740 0
0 750 0
0 760 0
0 770 0
0 780 0
0 790 0
0 800 0
0 810 0
0 820 0
0 830 0
0 840 0
0 850 0
0 860 0
0 870 0
0 880 0
0 890 0
0 900 0
0 910 0
0 920 0
0 930 0
0 940 0
0 950 0
0 960 0
0 970 0
0 980 0
0 990 0
0 1000 0
0 1010 0
0 1020 0
0 1030 0
0 1040 0
0 1050 0
0 1060 0
0 1070 0
0 1080 0
0 1090 0
0 1100 0
0 1110 0
0 1120 0
0 1130 0
0 1140 0
0 1150 0
0 1160 0
0 1170 0
0 1180 0
0 1190 0
0 1200 0
0 1210 0
0 1220 0
0 1230 0
0 1240 0
0 1250 0
0 1260 0
0 1270 0
0 1280 0
0 1290 0
0 1300 0
0 1310 0
0 1320 0
0 1330 0
0 1340 0
0 1350 0
0 1360 0
0 1370 0
0 1380 0
0 1390 0
0 1400 0
0 1410 0
0 1420 0
0 1430 0
0 1440 0
0 1450 0
0 1460 0
0 1470 0
0 1480 0
0 1490 0
0 1500 0
0 1510 0
0 1520 0
0 1530 0
0 1540 0
0 1550 0
0 1560 0
0 1570 0
0 1580 0
0 1590 0
0 1600 0
0 1610 0
0 1620 0
0 1630 0
0 1640 0
0 1650 0
0 1660 0
0 1670 0
0 1680 0
0 1690 0
0 1700 0
0 1710 0
0 1720 0
0 1730 0
0 1740 0
0 1750 0
0 1760 0
0 1770 0
0 1780 0
0 1790 0
0 1800 0
0 1810 0
0 1820 0
0 1830 0
0 1840 0
0 1850 0
0 1860 0
0 1870 0
0 1880 0
0 1890 0
0 1900 0
0 1910 0
0 1920 0
0 1930 0
0 1940 0
0 1950 0
0 1960 0
0 1970 0
0 1980 0
0 1990 0
0 2000 0
0 2010 0
0 2020 0
0 2030 0
0 2040 0
0 2050 0
0 2060 0
0 2070 0
0 2080 0
0 2090 0
0 2100 0
0 2110 0
0 2120 0
0 2130 0
0 2140 0
0 2150 0
0 2160 0
0 2170 0
0 2180 0
0 2190 0
0 2200 0
0 2210 0
0 2220 0
0 2230 0
0 2240 0
0 2250 0
0 2260 0
0 2270 0
0 2280 0
0 2290 0
0 2300 0
0 2310 0
0 2320 0
0 2330 0
0 2340 0
0 2350 0
0 2360 0
0 2370 0
0 2380 0
0 2390 0
0 2400 0
0 2410 0
0 2420 0
0 2430 0
0 2440 0
0 2450 0
0 2460 0
0 2470 0
0 2480 0
0 2490 0
0 2500 0
0 2510 0
0 2520 0
0 2530 0
0 2540 0
0 2550 0
0 2560 0
0 2570 0
0 2580 0
0 2590 0
0 2600 0
0 2610 0
0 2620 0
0 2630 0
0 2640 0
0 2650 0
0 2660 0
0 2670 0
0 2680 0
0 2690 0
0 2700 0
0 2710 0
0 2720 0
0 2730 0
0 2740 0
0 2750 0
0 2760 0
0 2770 0
0 2780 0
0 2790 0
0 2800 0
0 2810 0
0 2820 0
0 2830 0
0 2840 0
0 2850 0
0 2860 0
0 2870 0
0 2880 0
0 2890 0
0 2900 0
0 2910 0
0 2920 0
0 2930 0
0 2940 0
0 2950 0
0 2960 0
0 2970 0
0 2980 0
0 2990 0
0 3000 0
10 0 0
10 10 0
10 20 0
10 30 0
10 40 0
10 50 0
10 60 0
10 70 0
10 80 0
10 90 0
10 100 0
10 110 0
10 120 0
10 130 0
10 140 0
10 150 0
10 160 0
10 170 0
10 180 0
10 190 0
10 200 0
10 210 0
10 220 0
10 230 0
10 240 0
10 250 0
10 260 0
10 270 0
10 280 0
10 290 0
10 300 0
10 310 0
10 320 0
10 330 0
10 340 0
10 350 0
10 360 0
10 370 0
10 380 0
10 390 0
10 400 0
10 410 0
10 420 0
10 430 0
10 440 0
10 450 0
10 460 0
10 470 0
10 480 0
10 490 0
10 500 0
10 510 0
10 520 0
10 530 0
10 540 0
10 550 0
10 560 0
10 570 0
10 580 0
10 590 0
10 600 0
10 610 0
10 620 0
10 630 0
10 640 0
10 650 0
10 660 0
10 670 0
10 680 0
10 690 0
10 700 0
10 710 0
10 720 0
10 730 0
10 740 0
10 750 0
10 760 0
10 770 0
10 780 0
10 790 0
10 800 0
10 810 0
10 820 0
10 830 0
10 840 0
10 850 0
10 860 0
10 870 0
10 880 0
10 890 0
10 900 0
10 910 0
10 920 0
10 930 0
10 940 0
10 950 0
10 960 0
10 970 0
10 980 0
10 990 0
10 1000 0
10 1010 0
10 1020 0
10 1030 0
10 1040 0
10 1050 0
10 1060 0
10 1070 0
10 1080 0
10 1090 0
10 1100 0
10 1110 0
10 1120 0
10 1130 0
10 1140 0
10 1150 0
10 1160 0
10 1170 0
10 1180 0
10 1190 0
10 1200 0
10 1210 0
10 1220 0
10 1230 0
10 1240 0
10 1250 0
10 1260 0
10 1270 0
10 1280 0
10 1290 0
10 1300 0
10 1310 0
10 1320 0
10 1330 0
10 1340 0
10 1350 0
10 1360 0
10 1370 0
10 1380 0
10 1390 0
10 1400 0
10 1410 0
10 1420 0
10 1430 0
10 1440 0
10 1450 0
10 1460 0
10 1470 0
10 1480 0
10 1490 0
10 1500 0
10 1510 0
10 1520 0
10 1530 0
10 1540 0
10 1550 0
10 1560 0
10 1570 0
10 1580 0
10 1590 0
10 1600 0
10 1610 0
10 1620 0
10 1630 0
10 1640 0
10 1650 0
10 1660 0
10 1670 0
10 1680 0
10 1690 0
10 1700 0
10 1710 0
10 1720 0
10 1730 0
10 1740 0
10 1750 0
10 1760 0
10 1770 0
10 1780 0
10 1790 0
10 1800 0
10 1810 0
10 1820 0
10 1830 0
10 1840 0
10 1850 0
10 1860 0
10 1870 0
10 1880 0
10 1890 0
10 1900 0
10 1910 0
10 1920 0
10 1930 0
10 1940 0
10 1950 0
10 1960 0
10 1970 0
10 1980 0
10 1990 0
10 2000 0
10 2010 0
10 2020 0
10 2030 0
10 2040 0
10 2050 0
10 2060 0
10 2070 0
10 2080 0
10 2090 0
10 2100 0
10 2110 0
10 2120 0
10 2130 0
10 2140 0
10 2150 0
10 2160 0
10 2170 0
10 2180 0
10 2190 0
10 2200 0
10 2210 0
10 2220 0
10 2230 0
10 2240 0
10 2250 0
10 2260 0
10 2270 0
10 2280 0
10 2290 0
10 2300 0
10 2310 0
10 2320 0
10 2330 0
10 2340 0
10 2350 0
10 2360 0
10 2370 0
10 2380 0
10 2390 0
10 2400 0
10 2410 0
10 2420 0
10 2430 0
10 2440 0
10 2450 0
10 2460 0
10 2470 0
10 2480 0
10 2490 0
10 2500 0
10 2510 0
10 2520 0
10 2530 0
10 2540 0
10 2550 0
10 2560 0
10 2570 0
10 2580 0
10 2590 0
10 2600 0
10 2610 0
10 2620 0
10 2630 0
10 2640 0
10 2650 0
10 2660 0
10 2670 0
10 2680 0
10 2690 0
10 2700 0
10 2710 0
10 2720 0
10 2730 0
10 2740 0
10 2750 0
10 2760 0
10 2770 0
10 2780 0
10 2790 0
10 2800 0
10 2810 0
10 2820 0
10 2830 0
10 2840 0
10 2850 0
10 2860 0
10 2870 0
10 2880 0
10 2890 0
10 2900 0
10 2910 0
10 2920 0
10 2930 0
10 2940 0
10 2950 0
10 2960 0
10 2970 0
10 2980 0
10 2990 0
10 3000 0
20 0 0
20 10 0
20 20 0
20 30 0
20 40 0
20 50 0
20 60 0
20 70 0
20 80 0
20 90 0
20 100 0
20 110 0
20 120 0
20 130 0
20 140 0
20 150 0
20 160 0
20 170 0
20 180 0
20 190 0
20 200 0
20 210 0
20 220 0
20 230 0
20 240 0
20 250 0
20 260 0
20 270 0
20 280 0
20 290 0
20 300 0
20 310 0
20 320 0
20 330 0
20 340 0
20 350 0
20 360 0
20 370 0
20 380 0
20 390 0
20 400 0
20 410 0
20 420 0
20 430 0
20 440 0
20 450 0
20 460 0
20 470 0
20 480 0
20 490 0
20 500 0
20 510 0
20 520 0
20 530 0
20 540 0
20 550 0
20 560 0
20 570 0
20 580 0
20 590 0
20 600 0
20 610 0
20 620 0
20 630 0
20 640 0
20 650 0
20 660 0
20 670 0
20 680 0
20 690 0
20 700 0
20 710 0
20 720 0
20 730 0
20 740 0
20 750 0
20 760 0
20 770 0
20 780 0
20 790 0
20 800 0
20 810 0
20 820 0
20 830 0
20 840 0
20 850 0
20 860 0
20 870 0
20 880 0
20 890 0
20 900 0
20 910 0
20 920 0
20 930 0
20 940 0
20 950 0
20 960 0
20 970 0
20 980 0
20 990 0
20 1000 0
20 1010 0
20 1020 0
20 1030 0
20 1040 0
20 1050 0
20 1060 0
20 1070 0
20 1080 0
20 1090 0
20 1100 0
20 1110 0
20 1120 0
20 1130 0
20 1140 0
20 1150 0
20 1160 0
20 1170 0
20 1180 0
20 1190 0
20 1200 0
20 1210 0
20 1220 0
20 1230 0
20 1240 0
20 1250 0
20 1260 0
20 1270 0
20 1280 0
20 1290 0
20 1300 0
20 1310 0
20 1320 0
20 1330 0
20 1340 0
20 1350 0
20 1360 0
20 1370 0
20 1380 0
20 1390 0
20 1400 0
20 1410 0
20 1420 0
20 1430 0
20 1440 0
20 1450 0
20 1460 0
20 1470 0
20 1480 0
20 1490 0
20 1500 0
20 1510 0
20 1520 0
20 1530 0
20 1540 0
20 1550 0
20 1560 0
20 1570 0
20 1580 0
20 1590 0
20 1600 0
20 1610 0
20 1620 0
20 1630 0
20 1640 0
20 1650 0
20 1660 0
20 1670 0
20 1680 0
20 1690 0
20 1700 0
20 1710 0
20 1720 0
20 1730 0
20 1740 0
20 1750 0
20 1760 0
20 1770 0
20 1780 0
20 1790 0
20 1800 0
20 1810 0
20 1820 0
20 1830 0
20 1840 0
20 1850 0
20 1860 0
20 1870 0
20 1880 0
20 1890 0
20 1900 0
20 1910 0
20 1920 0
20 1930 0
20 1940 0
20 1950 0
20 1960 0
20 1970 0
20 1980 0
20 1990 0
20 2000 0
20 2010 0
20 2020 0
20 2030 0
20 2040 0
20 2050 0
20 2060 0
20 2070 0
20 2080 0
20 2090 0
20 2100 0
20 2110 0
20 2120 0
20 2130 0
20 2140 0
20 2150 0
20 2160 0
20 2170 0
20 2180 0
20 2190 0
20 2200 0
20 2210 0
20 2220 0
20 2230 0
20 2240 0
20 2250 0
20 2260 0
20 2270 0
20 2280 0
20 2290 0
20 2300 0
20 2310 0
20 2320 0
20 2330 0
20 2340 0
20 2350 0
20 2360 0
20 2370 0
20 2380 0
20 2390 0
20 2400 0
20 2410 0
20 2420 0
20 2430 0
20 2440 0
20 2450 0
20 2460 0
20 2470 0
20 2480 0
20 2490 0
20 2500 0
20 2510 0
20 2520 0
20 2530 0
20 2540 0
20 2550 0
20 2560 0
20 2570 0
20 2580 0
20 2590 0
20 2600 0
20 2610 0
20 2620 0
20 2630 0
20 2640 0
20 2650 0
20 2660 0
20 2670 0
20 2680 0
20 2690 0
20 2700 0
20 2710 0
20 2720 0
20 2730 0
20 2740 0
20 2750 0
20 2760 0
20 2770 0
20 2780 0
20 2790 0
20 2800 0
20 2810 0
20 2820 0
20 2830 0
20 2840 0
20 2850 0
20 2860 0
20 2870 0
20 2880 0
20 2890 0
20 2900 0
20 2910 0
20 2920 0
20 2930 0
20 2940 0
20 2950 0
20 2960 0
20 2970 0
20 2980 0
20 2990 0
20 3000 0
30 0 0
30 10 0
30 20 0
30 30 0
30 40 0
30 50 0
30 60 0
30 70 0
30 80 0
30 90 0
30 100 0
30 110 0
30 120 0
30 130 0
30 140 0
30 150 0
30 160 0
30 170 0
30 180 0
30 190 0
30 200 0
30 210 0
30 220 0
30 230 0
30 240 0
30 250 0
30 260 0
30 270 0
30 280 0
30 290 0
30 300 0
30 310 0
30 320 0
30 330 0
30 340 0
30 350 0
30 360 0
30 370 0
30 380 0
30 390 0
30 400 0
30 410 0
30 420 0
30 430 0
30 440 0
30 450 0
30 460 0
30 470 0
30 480 0
30 490 0
30 500 0
30 510 0
30 520 0
30 530 0
30 540 0
30 550 0
30 560 0
30 570 0
30 580 0
30 590 0
30 600 0
30 610 0
30 620 0
30 630 0
30 640 0
30 650 0
30 660 0
30 670 0
30 680 0
30 690 0
30 700 0
30 710 0
30 720 0
30 730 0
30 740 0
30 750 0
30 760 0
30 770 0
30 780 0
30 790 0
30 800 0
30 810 0
30 820 0
30 830 0
30 840 0
30 850 0
30 860 0
30 870 0
30 880 0
30 890 0
30 900 0
30 910 0
30 920 0
30 930 0
30 940 0
30 950 0
30 960 0
30 970 0
30 980 0
30 990 0
30 1000 0
30 1010 0
30 1020 0
30 1030 0
30 1040 0
30 1050 0
30 1060 0
30 1070 0
30 1080 0
30 1090 0
30 1100 0
30 1110 0
30 1120 0
30 1130 0
30 1140 0
30 1150 0
30 1160 0
30 1170 0
30 1180 0
30 1190 0
30 1200 0
30 1210 0
30 1220 0
30 1230 0
30 1240 0
30 1250 0
30 1260 0
30 1270 0
30 1280 0
30 1290 0
30 1300 0
30 1310 0
30 1320 0
30 1330 0
30 1340 0
30 1350 0
30 1360 0
30 1370 0
30 1380 0
30 1390 0
30 1400 0
30 1410 0
30 1420 0
30 1430 0
30 1440 0
30 1450 0
30 1460 0
30 1470 0
30 1480 0
30 1490 0
30 1500 0
30 1510 0
30 1520 0
30 1530 0
30 1540 0
30 1550 0
30 1560 0
30 1570 0
30 1580 0
30 1590 0
[...]
POINT_DATA 90601
SCALARS P float
LOOKUP_TABLE default
128.2799
128.2799
128.3168
128.4049
128.5529
128.7596
129.0127
129.2914
129.5711
129.8290
130.0468
130.2120
130.3179
130.3622
130.3462
130.2735
130.1488
129.9774
129.7648
129.5162
129.2363
128.9295
128.5997
128.2501
127.8837
127.5029
127.1100
126.7066
126.2945
125.8748
125.4487
125.0172
124.5810
124.1409
123.6974
123.2510
122.8021
122.3511
121.8983
121.4440
120.9883
120.5314
120.0736
119.6150
119.1556
118.6955
118.2350
117.7739
117.3125
116.8507
116.3886
115.9263
115.4637
115.0009
114.5380
114.0749
113.6117
113.1483
112.6849
112.2214
111.7578
111.2942
110.8305
110.3667
109.9029
109.4391
108.9752
108.5113
108.0474
107.5834
107.1195
106.6555
106.1915
105.7275
105.2635
104.7995
104.3354
103.8714
103.4074
102.9433
102.4793
102.0152
101.5511
101.0871
100.6230
100.1589
99.6948
99.2308
98.7667
98.3026
97.8385
97.3744
96.9103
96.4463
95.9822
95.5181
95.0540
94.5899
94.1258
93.6617
93.1976
92.7336
92.2695
91.8054
91.3413
90.8772
90.4131
89.9490
89.4849
89.0208
88.5567
88.0926
87.6285
87.1645
86.7004
86.2363
85.7722
85.3081
84.8440
84.3799
83.9158
83.4517
82.9876
82.5235
82.0594
81.5953
81.1313
80.6672
80.2031
79.7390
79.2749
78.8108
78.3467
77.8826
77.4185
76.9544
76.4903
76.0262
75.5621
75.0980
74.6340
74.1699
73.7058
73.2417
72.7776
72.3135
71.8494
71.3853
70.9212
70.4571
69.9930
69.5289
69.0648
68.6007
68.1366
67.6725
67.2084
66.7443
66.2803
65.8162
65.3521
64.8880
64.4239
63.9598
63.4957
63.0316
62.5674
62.1033
61.6392
61.1751
60.7110
60.2469
59.7828
59.3187
58.8546
58.3905
57.9263
57.4622
56.9981
56.5340
56.0698
55.6057
55.1416
54.6774
54.2133
53.7492
53.2850
52.8209
52.3567
51.8926
51.4284
50.9643
50.5001
50.0360
49.5718
49.1076
48.6435
48.1793
47.7152
47.2510
46.7869
46.3228
45.8586
45.3945
44.9305
44.4664
44.0023
43.5383
43.0743
42.6104
42.1465
41.6826
41.2188
40.7550
40.2914
39.8278
39.3643
38.9009
38.4376
37.9744
37.5114
37.0485
36.5858
36.1233
35.6610
35.1989
34.7371
34.2756
33.8144
33.3535
32.8930
32.4329
31.9732
31.5140
31.0552
30.5971
30.1395
29.6826
29.2263
28.7708
28.3161
27.8622
27.4093
26.9573
26.5064
26.0565
25.6079
25.1605
24.7144
24.2697
23.8266
23.3850
22.9451
22.5069
22.0706
21.6363
21.2040
20.7738
20.3459
19.9204
19.4974
19.0769
18.6591
18.2442
17.8321
17.4231
17.0173
16.6147
16.2156
15.8200
15.4280
15.0397
14.6554
14.2750
13.8987
13.5267
13.1590
12.7958
12.4371
12.0832
11.7340
11.3896
11.0503
10.7161
10.3870
10.0632
9.7448
9.4319
9.1245
8.8228
8.5269
8.2371
7.9537
7.6772
7.4085
7.1491
6.9016
6.6706
6.4640
6.2959
6.1905
128.2799
128.2799
128.3168
128.4049
128.5529
128.7596
129.0127
129.2914
129.5711
129.8290
130.0468
130.2120
130.3179
130.3622
130.3462
130.2735
130.1488
129.9774
129.7648
129.5162
129.2363
128.9295
128.5997
128.2501
127.8837
127.5029
127.1100
126.7066
126.2945
125.8748
125.4487
125.0172
124.5810
124.1409
123.6974
123.2510
122.8021
122.3511
121.8983
121.4440
120.9883
120.5314
120.0736
119.6150
119.1556
118.6955
118.2350
117.7739
117.3125
116.8507
116.3886
115.9263
115.4637
115.0009
114.5380
114.0749
113.6117
113.1483
112.6849
112.2214
111.7578
111.2942
110.8305
110.3667
109.9029
109.4391
108.9752
108.5113
108.0474
107.5834
107.1195
106.6555
106.1915
105.7275
105.2635
104.7995
104.3354
103.8714
103.4074
102.9433
102.4793
102.0152
101.5511
101.0871
100.6230
100.1589
99.6948
99.2308
98.7667
98.3026
97.8385
97.3744
96.9103
96.4463
95.9822
95.5181
95.0540
94.5899
94.1258
93.6617
93.1976
92.7336
92.2695
91.8054
91.3413
90.8772
90.4131
89.9490
89.4849
89.0208
88.5567
88.0926
87.6285
87.1645
86.7004
86.2363
85.7722
85.3081
84.8440
84.3799
83.9158
83.4517
82.9876
82.5235
82.0594
81.5953
81.1313
80.6672
80.2031
79.7390
79.2749
78.8108
78.3467
77.8826
77.4185
76.9544
76.4903
76.0262
75.5621
75.0980
74.6340
74.1699
73.7058
73.2417
72.7776
72.3135
71.8494
71.3853
70.9212
70.4571
69.9930
69.5289
69.0648
68.6007
68.1366
67.6725
67.2084
66.7443
66.2803
65.8162
65.3521
64.8880
64.4239
63.9598
63.4957
63.0316
62.5674
62.1033
61.6392
61.1751
60.7110
60.2469
59.7828
59.3187
58.8546
58.3905
57.9263
57.4622
56.9981
56.5340
56.0698
55.6057
55.1416
54.6774
54.2133
53.7492
53.2850
52.8209
52.3567
51.8926
51.4284
50.9643
50.5001
50.0360
49.5718
49.1076
48.6435
48.1793
47.7152
47.2510
46.7869
46.3228
45.8586
45.3945
44.9305
44.4664
44.0023
43.5383
43.0743
42.6104
42.1465
41.6826
41.2188
40.7550
40.2914
39.8278
39.3643
38.9009
38.4376
37.9744
37.5114
37.0485
36.5858
36.1233
35.6610
35.1989
34.7371
34.2756
33.8144
33.3535
32.8930
32.4329
31.9732
31.5140
31.0552
30.5971
30.1395
29.6826
29.2263
28.7708
28.3161
27.8622
27.4093
26.9573
26.5064
26.0565
25.6079
25.1605
24.7144
24.2697
23.8266
23.3850
22.9451
22.5069
22.0706
21.6363
21.2040
20.7738
20.3459
19.9204
19.4974
19.0769
18.6591
18.2442
17.8321
17.4231
17.0173
16.6147
16.2156
15.8200
15.4280
15.0397
14.6554
14.2750
13.8987
13.5267
13.1590
12.7958
12.4371
12.0832
11.7340
11.3896
11.0503
10.7161
10.3870
10.0632
9.7448
9.4319
9.1245
8.8228
8.5269
8.2371
7.9537
7.6772
7.4085
7.1491
6.9016
6.6706
6.4640
6.2959
6.1905
128.5711
128.5711
128.6199
128.7355
128.9269
129.1875
129.4944
129.8154
130.1189
130.3797
130.5816
130.7164
130.7824
130.7819
130.7198
130.6022
130.4354
130.2256
129.9787
129.6998
129.3935
129.0638
128.7143
128.3479
127.9671
127.5741
127.1707
126.7584
126.3387
125.9126
125.4810
125.0449
124.6047
124.1612
123.7148
123.2660
122.8150
122.3622
121.9078
121.4522
120.9954
120.5376
120.0789
119.6195
119.1595
118.6990
118.2379
117.7765
117.3147
116.8527
116.3903
115.9277
115.4650
115.0020
114.5389
114.0757
113.6124
113.1490
112.6855
112.2219
111.7582
111.2945
110.8308
110.3670
109.9031
109.4393
108.9754
108.5115
108.0475
107.5836
107.1196
106.6556
106.1916
105.7276
105.2636
104.7995
104.3355
103.8714
103.4074
102.9433
102.4793
102.0152
101.5511
101.0871
100.6230
100.1589
99.6949
99.2308
98.7667
98.3026
97.8385
97.3744
96.9104
96.4463
95.9822
95.5181
95.0540
94.5899
94.1258
93.6617
93.1976
92.7336
92.2695
91.8054
91.3413
90.8772
90.4131
89.9490
89.4849
89.0208
88.5567
88.0926
87.6285
87.1645
86.7004
86.2363
85.7722
85.3081
84.8440
84.3799
83.9158
83.4517
82.9876
82.5235
82.0594
81.5953
81.1313
80.6672
80.2031
79.7390
79.2749
78.8108
78.3467
77.8826
77.4185
76.9544
76.4903
76.0262
75.5621
75.0980
74.6340
74.1699
73.7058
73.2417
72.7776
72.3135
71.8494
71.3853
70.9212
70.4571
69.9930
69.5289
69.0648
68.6007
68.1366
67.6725
67.2084
66.7443
66.2803
65.8162
65.3521
64.8880
64.4239
63.9598
63.4957
63.0316
62.5674
62.1033
61.6392
61.1751
60.7110
60.2469
59.7828
59.3187
58.8546
58.3905
57.9263
57.4622
56.9981
56.5340
56.0698
55.6057
55.1416
54.6774
54.2133
53.7492
53.2850
52.8209
52.3567
51.8926
51.4284
50.9643
50.5001
50.0360
49.5718
49.1076
48.6435
48.1793
47.7152
47.2510
46.7869
46.3228
45.8586
45.3945
44.9305
44.4664
44.0023
43.5383
43.0743
42.6104
42.1465
41.6826
41.2188
40.7550
40.2914
39.8278
39.3643
38.9009
38.4376
37.9744
37.5114
37.0485
36.5858
36.1233
35.6610
35.1989
34.7371
34.2756
33.8144
33.3535
32.8930
32.4329
31.9732
31.5140
31.0552
30.5971
30.1395
29.6826
29.2263
28.7708
28.3161
27.8622
27.4093
26.9573
26.5064
26.0565
25.6079
25.1605
24.7144
24.2697
23.8266
23.3850
22.9451
22.5069
22.0706
21.6363
21.2040
20.7738
20.3459
19.9204
19.4974
19.0769
18.6591
18.2442
17.8321
17.4231
17.0173
16.6147
16.2156
15.8200
15.4280
15.0397
14.6554
14.2750
13.8987
13.5267
13.1590
12.7958
12.4371
12.0832
11.7340
11.3896
11.0503
10.7161
10.3870
10.0632
9.7448
9.4319
9.1245
8.8228
8.5269
8.2371
7.9537
7.6772
7.4085
7.1491
6.9016
6.6706
6.4640
6.2959
6.1905
129.3477
129.3477
129.4331
129.6340
129.9596
130.3842
130.8476
131.2828
131.6395
131.8913
132.0324
132.0698
132.0166
131.8879
131.6975
131.4575
131.1779
130.8664
130.5293
130.1715
129.7967
129.4081
129.0080
128.5983
128.1806
127.7561
127.3260
126.8910
126.4520
126.0094
125.5639
125.1158
124.6655
124.2133
123.7596
123.3044
122.8480
122.3906
121.9324
121.4733
121.0136
120.5533
120.0925
119.6313
119.1697
118.7078
118.2456
117.7831
117.3205
116.8576
116.3946
115.9315
115.4682
115.0049
114.5414
114.0779
113.6143
113.1506
112.6869
112.2231
111.7593
111.2955
110.8316
110.3677
109.9038
109.4398
108.9759
108.5119
108.0479
107.5839
107.1199
106.6559
106.1918
105.7278
105.2637
104.7997
104.3356
103.8716
103.4075
102.9434
102.4794
102.0153
101.5512
101.0871
100.6231
100.1590
99.6949
99.2308
98.7667
98.3026
97.8385
97.3745
96.9104
96.4463
95.9822
95.5181
95.0540
94.5899
94.1258
93.6617
93.1977
92.7336
92.2695
91.8054
91.3413
90.8772
90.4131
89.9490
89.4849
89.0208
88.5567
88.0926
87.6285
87.1645
86.7004
86.2363
85.7722
85.3081
84.8440
84.3799
83.9158
83.4517
82.9876
82.5235
82.0594
81.5953
81.1313
80.6672
80.2031
79.7390
79.2749
78.8108
78.3467
77.8826
77.4185
76.9544
76.4903
76.0262
75.5621
75.0980
74.6340
74.1699
73.7058
73.2417
72.7776
72.3135
71.8494
71.3853
70.9212
70.4571
69.9930
69.5289
69.0648
68.6007
68.1366
67.6725
67.2084
66.7443
66.2803
65.8162
65.3521
64.8880
64.4239
63.9598
63.4957
63.0316
62.5674
62.1033
61.6392
61.1751
60.7110
60.2469
59.7828
59.3187
58.8546
58.3905
57.9263
57.4622
56.9981
56.5340
56.0698
55.6057
55.1416
54.6774
54.2133
53.7492
53.2850
52.8209
52.3567
51.8926
51.4284
50.9643
50.5001
50.0360
49.5718
49.1076
48.6435
48.1793
47.7152
47.2510
46.7869
46.3228
45.8586
45.3945
44.9305
44.4664
44.0023
43.5383
43.0743
42.6104
42.1465
41.6826
41.2188
40.7550
40.2914
39.8278
39.3643
38.9009
38.4376
37.9744
37.5114
37.0485
36.5858
36.1233
35.6610
35.1989
34.7371
34.2756
33.8144
33.3535
32.8930
32.4329
31.9732
31.5140
31.0552
30.5971
30.1395
29.6826
29.2263
28.7708
28.3161
27.8622
27.4093
26.9573
26.5064
26.0565
25.6079
25.1605
24.7144
24.2697
23.8266
23.3850
22.9451
22.5069
22.0706
21.6363
21.2040
20.7738
20.3459
19.9204
19.4974
19.0769
18.6591
18.2442
17.8321
17.4231
17.0173
16.6147
16.2156
15.8200
15.4280
15.0397
14.6554
14.2750
13.8987
13.5267
13.1590
12.7958
12.4371
12.0832
11.7340
11.3896
11.0503
10.7161
10.3870
10.0632
9.7448
9.4319
9.1245
8.8228
8.5269
8.2371
7.9537
7.6772
7.4085
7.1491
6.9016
6.6706
6.4640
6.2959
6.1905
130.9162
130.9162
131.0946
131.5131
132.1822
133.0167
133.8416
134.5023
134.9206
135.0888
135.0407
134.8251
134.4898
134.0747
133.6096
133.1159
132.6076
132.0937
131.5798
131.0688
130.5622
130.0606
129.5641
129.0722
128.5846
128.1007
127.6200
127.1421
126.6665
126.1929
125.7210
125.2504
124.7809
124.3124
123.8447
123.3776
122.9110
122.4449
121.9791
121.5136
121.0484
120.5834
120.1185
119.6538
119.1892
118.7246
118.2602
117.7958
117.3315
116.8672
116.4029
115.9387
115.4745
115.0103
114.5462
114.0820
113.6179
113.1538
112.6896
112.2255
111.7614
111.2973
110.8332
110.3691
109.9050
109.4409
108.9768
108.5127
108.0486
107.5845
107.1204
106.6563
106.1922
105.7282
105.2641
104.8000
104.3359
103.8718
103.4077
102.9436
102.4795
102.0154
101.5513
101.0872
100.6231
100.1590
99.6950
99.2309
98.7668
98.3027
97.8386
97.3745
96.9104
96.4463
95.9822
95.5181
95.0540
94.5899
94.1258
93.6618
93.1977
92.7336
92.2695
91.8054
91.3413
90.8772
90.4131
89.9490
89.4849
89.0208
88.5567
88.0926
87.6286
87.1645
86.7004
86.2363
85.7722
85.3081
84.8440
84.3799
83.9158
83.4517
82.9876
82.5235
82.0594
81.5953
81.1313
80.6672
80.2031
79.7390
79.2749
78.8108
78.3467
77.8826
77.4185
76.9544
76.4903
76.0262
75.5621
75.0980
74.6340
74.1699
73.7058
73.2417
72.7776
72.3135
71.8494
71.3853
70.9212
70.4571
69.9930
69.5289
69.0648
68.6007
68.1366
67.6725
67.2084
66.7443
66.2803
65.8162
65.3521
64.8880
64.4239
63.9598
63.4957
63.0316
62.5674
62.1033
61.6392
61.1751
60.7110
60.2469
59.7828
59.3187
58.8546
58.3905
57.9263
57.4622
56.9981
56.5340
56.0698
55.6057
55.1416
54.6774
54.2133
53.7492
53.2850
52.8209
52.3567
51.8926
51.4284
50.9643
50.5001
50.0360
49.5718
49.1076
48.6435
48.1793
47.7152
47.2510
46.7869
46.3228
45.8586
45.3945
44.9305
44.4664
44.0023
43.5383
43.0743
42.6104
42.1465
41.6826
41.2188
40.7550
40.2914
39.8278
39.3643
38.9009
38.4376
37.9744
37.5114
37.0485
36.5858
36.1233
35.6610
35.1989
34.7371
34.2756
33.8144
33.3535
32.8930
32.4329
31.9732
31.5140
31.0552
30.5971
30.1395
29.6826
29.2263
28.7708
28.3161
27.8622
27.4093
26.9573
26.5064
26.0565
25.6079
25.1605
24.7144
24.2697
23.8266
23.3850
22.9451
22.5069
22.0706
21.6363
21.2040
20.7738
20.3459
19.9204
19.4974
19.0769
18.6591
18.2442
17.8321
17.4231
17.0173
16.6147
16.2156
15.8200
15.4280
15.0397
14.6554
14.2750
13.8987
13.5267
13.1590
12.7958
12.4371
12.0832
11.7340
11.3896
11.0503
10.7161
10.3870
10.0632
9.7448
9.4319
9.1245
8.8228
8.5269
8.2371
7.9537
7.6772
7.4085
7.1491
6.9016
6.6706
6.4640
6.2959
6.1905
133.7435
133.7435
134.1449
135.0943
136.6124
138.4383
140.0284
141.0360
141.3958
141.2107
140.6379
139.8241
138.8828
137.8922
136.9019
135.9404
135.0225
134.1539
133.3349
132.5629
131.8339
131.1431
130.4857
129.8573
129.2538
128.6716
128.1074
127.5586
127.0227
126.4978
125.9822
125.4744
124.9732
124.4776
123.9867
123.4998
123.0162
122.5356
122.0574
121.5812
121.1068
120.6338
120.1622
119.6916
119.2219
118.7530
118.2848
117.8172
117.3501
116.8833
116.4170
115.9509
115.4852
115.0196
114.5543
114.0891
113.6240
113.1591
112.6943
112.2296
111.7650
111.3004
110.8359
110.3715
109.9071
109.4427
108.9784
108.5141
108.0498
107.5856
107.1214
106.6572
106.1930
105.7288
105.2646
104.8005
104.3363
103.8722
103.4080
102.9439
102.4798
102.0156
101.5515
101.0874
100.6233
100.1592
99.6951
99.2310
98.7669
98.3028
97.8387
97.3746
96.9105
96.4464
95.9823
95.5182
95.0541
94.5900
94.1259
93.6618
93.1977
92.7336
92.2695
91.8054
91.3413
90.8772
90.4131
89.9490
89.4849
89.0208
88.5567
88.0926
87.6286
87.1645
86.7004
86.2363
85.7722
85.3081
84.8440
84.3799
83.9158
83.4517
82.9876
82.5235
82.0594
81.5953
81.1313
80.6672
80.2031
79.7390
79.2749
78.8108
78.3467
77.8826
77.4185
76.9544
76.4903
76.0262
75.5621
75.0980
74.6340
74.1699
73.7058
73.2417
72.7776
72.3135
71.8494
71.3853
70.9212
70.4571
69.9930
69.5289
69.0648
68.6007
68.1366
67.6725
67.2084
66.7443
66.2803
65.8162
65.3521
64.8880
64.4239
63.9598
63.4957
63.0316
62.5674
62.1033
61.6392
61.1751
60.7110
60.2469
59.7828
59.3187
58.8546
58.3905
57.9263
57.4622
56.9981
56.5340
56.0698
55.6057
55.1416
54.6774
54.2133
53.7492
53.2850
52.8209
52.3567
51.8926
51.4284
50.9643
50.5001
50.0360
49.5718
49.1076
48.6435
48.1793
47.7152
47.2510
46.7869
46.3228
45.8586
45.3945
44.9305
44.4664
44.0023
43.5383
43.0743
42.6104
42.1465
41.6826
41.2188
40.7550
40.2914
39.8278
39.3643
38.9009
38.4376
37.9744
37.5114
37.0485
36.5858
36.1233
35.6610
35.1989
34.7371
34.2756
33.8144
33.3535
32.8930
32.4329
31.9732
31.5140
31.0552
30.5971
30.1395
29.6826
29.2263
28.7708
28.3161
27.8622
27.4093
26.9573
26.5064
26.0565
25.6079
25.1605
24.7144
24.2697
23.8266
23.3850
22.9451
22.5069
22.0706
21.6363
21.2040
20.7738
20.3459
19.9204
19.4974
19.0769
18.6591
18.2442
17.8321
17.4231
17.0173
16.6147
16.2156
15.8200
15.4280
15.0397
14.6554
14.2750
13.8987
13.5267
13.1590
12.7958
12.4371
12.0832
11.7340
11.3896
11.0503
10.7161
10.3870
10.0632
9.7448
9.4319
9.1245
8.8228
8.5269
8.2371
7.9537
7.6772
7.4085
7.1491
6.9016
6.6706
6.4640
6.2959
6.1905
138.4969
138.4969
139.4162
141.6386
145.2692
149.5484
152.6248
153.8783
153.5769
152.2466
150.3570
148.2383
146.0939
144.0367
142.1211
140.3670
138.7749
137.3351
136.0331
134.8531
133.7793
132.7971
131.8934
131.0566
130.2765
129.5446
128.8534
128.1967
127.5691
126.9661
126.3839
125.8193
125.2696
124.7325
124.2062
123.6889
123.1793
122.6763
122.1789
121.6862
121.1976
120.7125
120.2303
119.7506
119.2731
118.7975
118.3234
117.8507
117.3792
116.9087
116.4390
115.9701
115.5019
115.0342
114.5670
114.1002
113.6337
113.1676
112.7017
112.2361
111.7706
111.3053
110.8402
110.3753
109.9104
109.4456
108.9809
108.5163
108.0518
107.5873
107.1229
106.6585
106.1941
105.7298
105.2655
104.8012
104.3370
103.8728
103.4086
102.9444
102.4802
102.0160
101.5518
101.0877
100.6235
100.1594
99.6953
99.2311
98.7670
98.3029
97.8388
97.3747
96.9105
96.4464
95.9823
95.5182
95.0541
94.5900
94.1259
93.6618
93.1977
92.7336
92.2695
91.8054
91.3413
90.8772
90.4131
89.9490
89.4849
89.0208
88.5568
88.0927
87.6286
87.1645
86.7004
86.2363
85.7722
85.3081
84.8440
84.3799
83.9158
83.4517
82.9876
82.5235
82.0594
81.5953
81.1313
80.6672
80.2031
79.7390
79.2749
78.8108
78.3467
77.8826
77.4185
76.9544
76.4903
76.0262
75.5621
75.0980
74.6340
74.1699
73.7058
73.2417
72.7776
72.3135
71.8494
71.3853
70.9212
70.4571
69.9930
69.5289
69.0648
68.6007
68.1366
67.6725
67.2084
66.7443
66.2803
65.8162
65.3521
64.8880
64.4239
63.9598
63.4957
63.0316
62.5674
62.1033
61.6392
61.1751
60.7110
60.2469
59.7828
59.3187
58.8546
58.3905
57.9263
57.4622
56.9981
56.5340
56.0698
55.6057
55.1416
54.6774
54.2133
53.7492
53.2850
52.8209
52.3567
51.8926
51.4284
50.9643
50.5001
50.0360
49.5718
49.1076
48.6435
48.1793
47.7152
47.2510
46.7869
46.3228
45.8586
45.3945
44.9305
44.4664
44.0023
43.5383
43.0743
42.6104
42.1465
41.6826
41.2188
40.7550
40.2914
39.8278
39.3643
38.9009
38.4376
37.9744
37.5114
37.0485
36.5858
36.1233
35.6610
35.1989
34.7371
34.2756
33.8144
33.3535
32.8930
32.4329
31.9732
31.5140
31.0552
30.5971
30.1395
29.6826
29.2263
28.7708
28.3161
27.8622
27.4093
26.9573
26.5064
26.0565
25.6079
25.1605
24.7144
24.2697
23.8266
23.3850
22.9451
22.5069
22.0706
21.6363
21.2040
20.7738
20.3459
19.9204
19.4974
19.0769
18.6591
18.2442
17.8321
17.4231
17.0173
16.6147
16.2156
15.8200
15.4280
15.0397
14.6554
14.2750
13.8987
13.5267
13.1590
12.7958
12.4371
12.0832
11.7340
11.3896
11.0503
10.7161
10.3870
10.0632
9.7448
9.4319
9.1245
8.8228
8.5269
8.2371
7.9537
7.6772
7.4085
7.1491
6.9016
6.6706
6.4640
6.2959
6.1905
146.0201
146.0201
148.0900
153.3020
162.2941
173.0715
178.4548
178.5710
175.5153
171.0328
166.1696
161.4577
157.1288
153.2577
149.8428
146.8495
144.2309
141.9379
139.9248
138.1500
136.5775
135.1759
133.9188
132.7835
131.7509
130.8049
129.9319
129.1207
128.3615
127.6464
126.9685
126.3221
125.7025
125.1055
124.5278
123.9664
123.4190
122.8835
122.3581
121.8413
121.3320
120.8289
120.3313
119.8382
119.3492
118.8636
118.3809
117.9007
117.4227
116.9465
116.4720
115.9989
115.5269
115.0560
114.5860
114.1168
113.6482
113.1803
112.7128
112.2458
111.7791
111.3128
110.8467
110.3809
109.9154
109.4500
108.9848
108.5197
108.0547
107.5899
107.1251
106.6605
106.1959
105.7313
105.2669
104.8024
104.3380
103.8737
103.4094
102.9451
102.4808
102.0165
101.5523
101.0881
100.6239
100.1597
99.6956
99.2314
98.7672
98.3031
97.8389
97.3748
96.9107
96.4466
95.9824
95.5183
95.0542
94.5901
94.1260
93.6619
93.1978
92.7337
92.2696
91.8055
91.3414
90.8773
90.4132
89.9491
89.4850
89.0209
88.5568
88.0927
87.6286
87.1645
86.7004
86.2363
85.7722
85.3081
84.8440
84.3799
83.9158
83.4517
82.9876
82.5235
82.0594
81.5954
81.1313
80.6672
80.2031
79.7390
79.2749
78.8108
78.3467
77.8826
77.4185
76.9544
76.4903
76.0262
75.5621
75.0980
74.6340
74.1699
73.7058
73.2417
72.7776
72.3135
71.8494
71.3853
70.9212
70.4571
69.9930
69.5289
69.0648
68.6007
68.1366
67.6725
67.2084
66.7443
66.2803
65.8162
65.3521
64.8880
64.4239
63.9598
63.4957
63.0316
62.5674
62.1033
61.6392
61.1751
60.7110
60.2469
59.7828
59.3187
58.8546
58.3905
57.9263
57.4622
56.9981
56.5340
56.0698
55.6057
55.1416
54.6774
54.2133
53.7492
53.2850
52.8209
52.3567
51.8926
51.4284
50.9643
50.5001
50.0360
49.5718
49.1076
48.6435
48.1793
47.7152
47.2510
46.7869
46.3228
45.8586
45.3945
44.9305
44.4664
44.0023
43.5383
43.0743
42.6104
42.1465
41.6826
41.2188
40.7550
40.2914
39.8278
39.3643
38.9009
38.4376
37.9744
37.5114
37.0485
36.5858
36.1233
35.6610
35.1989
34.7371
34.2756
33.8144
33.3535
32.8930
32.4329
31.9732
31.5140
31.0552
30.5971
30.1395
29.6826
29.2263
28.7708
28.3161
27.8622
27.4093
26.9573
26.5064
26.0565
25.6079
25.1605
24.7144
24.2697
23.8266
23.3850
22.9451
22.5069
22.0706
21.6363
21.2040
20.7738
20.3459
19.9204
19.4974
19.0769
18.6591
18.2442
17.8321
17.4231
17.0173
16.6147
16.2156
15.8200
15.4280
15.0397
14.6554
14.2750
13.8987
13.5267
13.1590
12.7958
12.4371
12.0832
11.7340
11.3896
11.0503
10.7161
10.3870
10.0632
9.7448
9.4319
9.1245
8.8228
8.5269
8.2371
7.9537
7.6772
7.4085
7.1491
6.9016
6.6706
6.4640
6.2959
6.1905
157.1213
157.1213
161.5470
173.4459
196.2588
226.5707
231.9512
224.3064
212.5608
200.6421
189.9016
180.6381