# vtk DataFile Version 5.0
Example 3D regular grid VTK file.
ASCII
DATASET UNSTRUCTURED_GRID
POINTS 90601 float
0 0 0
0 10 0
0 20 0
0 30 0
0 40 0
0 50 0
0 60 0
0 70 0
0 80 0
0 90 0
0 100 0
0 110 0
0 120 0
0 130 0
0 140 0
0 150 0
0 160 0
0 170 0
0 180 0
0 190 0
0 200 0
0 210 0
0 220 0
0 230 0
0 240 0
0 250 0
0 260 0
0 270 0
0 280 0
0 290 0
0 300 0
0 310 0
0 320 0
0 330 0
0 340 0
0 350 0
0 360 0
0 370 0
0 380 0
0 390 0
0 400 0
0 410 0
0 420 0
0 430 0
0 440 0
0 450 0
0 460 0
0 470 0
0 480 0
0 490 0
0 500 0
0 510 0
0 520 0
0 530 0
0 540 0
0 550 0
0 560 0
0 570 0
0 580 0
0 590 0
0 600 0
0 610 0
0 620 0
0 630 0
0 640 0
0 650 0
0 660 0
0 670 0
0 680 0
0 690 0
0 700 0
0 710 0
0 720 0
0 730 0
0 740 0
0 750 0
0 760 0
0 770 0
0 780 0
0 790 0
0 800 0
0 810 0
0 820 0
0 830 0
0 840 0
0 850 0
0 860 0
0 870 0
0 880 0
0 890 0
0 900 0
0 910 0
0 920 0
0 930 0
0 940 0
0 950 0
0 960 0
0 970 0
0 980 0
0 990 0
0 1000 0
0 1010 0
0 1020 0
0 1030 0
0 1040 0
0 1050 0
0 1060 0
0 1070 0
0 1080 0
0 1090 0
0 1100 0
0 1110 0
0 1120 0
0 1130 0
0 1140 0
0 1150 0
0 1160 0
0 1170 0
0 1180 0
0 1190 0
0 1200 0
0 1210 0
0 1220 0
0 1230 0
0 1240 0
0 1250 0
0 1260 0
0 1270 0
0 1280 0
0 1290 0
0 1300 0
0 1310 0
0 1320 0
0 1330 0
0 1340 0
0 1350 0
0 1360 0
0 1370 0
0 1380 0
0 1390 0
0 1400 0
0 1410 0
0 1420 0
0 1430 0
0 1440 0
0 1450 0
0 1460 0
0 1470 0
0 1480 0
0 1490 0
0 1500 0
0 1510 0
0 1520 0
0 1530 0
0 1540 0
0 1550 0
0 1560 0
0 1570 0
0 1580 0
0 1590 0
0 1600 0
0 1610 0
0 1620 0
0 1630 0
0 1640 0
0 1650 0
0 1660 0
0 1670 0
0 1680 0
0 1690 0
0 1700 0
0 1710 0
0 1720 0
0 1730 0
0 1740 0
0 1750 0
0 1760 0
0 1770 0
0 1780 0
0 1790 0
0 1800 0
0 1810 0
0 1820 0
0 1830 0
0 1840 0
0 1850 0
0 1860 0
0 1870 0
0 1880 0
0 1890 0
0 1900 0
0 1910 0
0 1920 0
0 1930 0
0 1940 0
0 1950 0
0 1960 0
0 1970 0
0 1980 0
0 1990 0
0 2000 0
0 2010 0
0 2020 0
0 2030 0
0 2040 0
0 2050 0
0 2060 0
0 2070 0
0 2080 0
0 2090 0
0 2100 0
0 2110 0
0 2120 0
0 2130 0
0 2140 0
0 2150 0
0 2160 0
0 2170 0
0 2180 0
0 2190 0
0 2200 0
0 2210 0
0 2220 0
0 2230 0
0 2240 0
0 2250 0
0 2260 0
0 2270 0
0 2280 0
0 2290 0
0 2300 0
0 2310 0
0 2320 0
0 2330 0
0 2340 0
0 2350 0
0 2360 0
0 2370 0
0 2380 0
0 2390 0
0 2400 0
0 2410 0
0 2420 0
0 2430 0
0 2440 0
0 2450 0
0 2460 0
0 2470 0
0 2480 0
0 2490 0
0 2500 0
0 2510 0
0 2520 0
0 2530 0
0 2540 0
0 2550 0
0 2560 0
0 2570 0
0 2580 0
0 2590 0
0 2600 0
0 2610 0
0 2620 0
0 2630 0
0 2640 0
0 2650 0
0 2660 0
0 2670 0
0 2680 0
0 2690 0
0 2700 0
0 2710 0
0 2720 0
0 2730 0
0 2740 0
0 2750 0
0 2760 0
0 2770 0
0 2780 0
0 2790 0
0 2800 0
0 2810 0
0 2820 0
0 2830 0
0 2840 0
0 2850 0
0 2860 0
0 2870 0
0 2880 0
0 2890 0
0 2900 0
0 2910 0
0 2920 0
0 2930 0
0 2940 0
0 2950 0
0 2960 0
0 2970 0
0 2980 0
0 2990 0
0 3000 0
10 0 0
10 10 0
10 20 0
10 30 0
10 40 0
10 50 0
10 60 0
10 70 0
10 80 0
10 90 0
10 100 0
10 110 0
10 120 0
10 130 0
10 140 0
10 150 0
10 160 0
10 170 0
10 180 0
10 190 0
10 200 0
10 210 0
10 220 0
10 230 0
10 240 0
10 250 0
10 260 0
10 270 0
10 280 0
10 290 0
10 300 0
10 310 0
10 320 0
10 330 0
10 340 0
10 350 0
10 360 0
10 370 0
10 380 0
10 390 0
10 400 0
10 410 0
10 420 0
10 430 0
10 440 0
10 450 0
10 460 0
10 470 0
10 480 0
10 490 0
10 500 0
10 510 0
10 520 0
10 530 0
10 540 0
10 550 0
10 560 0
10 570 0
10 580 0
10 590 0
10 600 0
10 610 0
10 620 0
10 630 0
10 640 0
10 650 0
10 660 0
10 670 0
10 680 0
10 690 0
10 700 0
10 710 0
10 720 0
10 730 0
10 740 0
10 750 0
10 760 0
10 770 0
10 780 0
10 790 0
10 800 0
10 810 0
10 820 0
10 830 0
10 840 0
10 850 0
10 860 0
10 870 0
10 880 0
10 890 0
10 900 0
10 910 0
10 920 0
10 930 0
10 940 0
10 950 0
10 960 0
10 970 0
10 980 0
10 990 0
10 1000 0
10 1010 0
10 1020 0
10 1030 0
10 1040 0
10 1050 0
10 1060 0
10 1070 0
10 1080 0
10 1090 0
10 1100 0
10 1110 0
10 1120 0
10 1130 0
10 1140 0
10 1150 0
10 1160 0
10 1170 0
10 1180 0
10 1190 0
10 1200 0
10 1210 0
10 1220 0
10 1230 0
10 1240 0
10 1250 0
10 1260 0
10 1270 0
10 1280 0
10 1290 0
10 1300 0
10 1310 0
10 1320 0
10 1330 0
10 1340 0
10 1350 0
10 1360 0
10 1370 0
10 1380 0
10 1390 0
10 1400 0
10 1410 0
10 1420 0
10 1430 0
10 1440 0
10 1450 0
10 1460 0
10 1470 0
10 1480 0
10 1490 0
10 1500 0
10 1510 0
10 1520 0
10 1530 0
10 1540 0
10 1550 0
10 1560 0
10 1570 0
10 1580 0
10 1590 0
10 1600 0
10 1610 0
10 1620 0
10 1630 0
10 1640 0
10 1650 0
10 1660 0
10 1670 0
10 1680 0
10 1690 0
10 1700 0
10 1710 0
10 1720 0
10 1730 0
10 1740 0
10 1750 0
10 1760 0
10 1770 0
10 1780 0
10 1790 0
10 1800 0
10 1810 0
10 1820 0
10 1830 0
10 1840 0
10 1850 0
10 1860 0
10 1870 0
10 1880 0
10 1890 0
10 1900 0
10 1910 0
10 1920 0
10 1930 0
10 1940 0
10 1950 0
10 1960 0
10 1970 0
10 1980 0
10 1990 0
10 2000 0
10 2010 0
10 2020 0
10 2030 0
10 2040 0
10 2050 0
10 2060 0
10 2070 0
10 2080 0
10 2090 0
10 2100 0
10 2110 0
10 2120 0
10 2130 0
10 2140 0
10 2150 0
10 2160 0
10 2170 0
10 2180 0
10 2190 0
10 2200 0
10 2210 0
10 2220 0
10 2230 0
10 2240 0
10 2250 0
10 2260 0
10 2270 0
10 2280 0
10 2290 0
10 2300 0
10 2310 0
10 2320 0
10 2330 0
10 2340 0
10 2350 0
10 2360 0
10 2370 0
10 2380 0
10 2390 0
10 2400 0
10 2410 0
10 2420 0
10 2430 0
10 2440 0
10 2450 0
10 2460 0
10 2470 0
10 2480 0
10 2490 0
10 2500 0
10 2510 0
10 2520 0
10 2530 0
10 2540 0
10 2550 0
10 2560 0
10 2570 0
10 2580 0
10 2590 0
10 2600 0
10 2610 0
10 2620 0
10 2630 0
10 2640 0
10 2650 0
10 2660 0
10 2670 0
10 2680 0
10 2690 0
10 2700 0
10 2710 0
10 2720 0
10 2730 0
10 2740 0
10 2750 0
10 2760 0
10 2770 0
10 2780 0
10 2790 0
10 2800 0
10 2810 0
10 2820 0
10 2830 0
10 2840 0
10 2850 0
10 2860 0
10 2870 0
10 2880 0
10 2890 0
10 2900 0
10 2910 0
10 2920 0
10 2930 0
10 2940 0
10 2950 0
10 2960 0
10 2970 0
10 2980 0
10 2990 0
10 3000 0
20 0 0
20 10 0
20 20 0
20 30 0
20 40 0
20 50 0
20 60 0
20 70 0
20 80 0
20 90 0
20 100 0
20 110 0
20 120 0
20 130 0
20 140 0
20 150 0
20 160 0
20 170 0
20 180 0
20 190 0
20 200 0
20 210 0
20 220 0
20 230 0
20 240 0
20 250 0
20 260 0
20 270 0
20 280 0
20 290 0
20 300 0
20 310 0
20 320 0
20 330 0
20 340 0
20 350 0
20 360 0
20 370 0
20 380 0
20 390 0
20 400 0
20 410 0
20 420 0
20 430 0
20 440 0
20 450 0
20 460 0
20 470 0
20 480 0
20 490 0
20 500 0
20 510 0
20 520 0
20 530 0
20 540 0
20 550 0
20 560 0
20 570 0
20 580 0
20 590 0
20 600 0
20 610 0
20 620 0
20 630 0
20 640 0
20 650 0
20 660 0
20 670 0
20 680 0
20 690 0
20 700 0
20 710 0
20 720 0
20 730 0
20 740 0
20 750 0
20 760 0
20 770 0
20 780 0
20 790 0
20 800 0
20 810 0
20 820 0
20 830 0
20 840 0
20 850 0
20 860 0
20 870 0
20 880 0
20 890 0
20 900 0
20 910 0
20 920 0
20 930 0
20 940 0
20 950 0
20 960 0
20 970 0
20 980 0
20 990 0
20 1000 0
20 1010 0
20 1020 0
20 1030 0
20 1040 0
20 1050 0
20 1060 0
20 1070 0
20 1080 0
20 1090 0
20 1100 0
20 1110 0
20 1120 0
20 1130 0
20 1140 0
20 1150 0
20 1160 0
20 1170 0
20 1180 0
20 1190 0
20 1200 0
20 1210 0
20 1220 0
20 1230 0
20 1240 0
20 1250 0
20 1260 0
20 1270 0
20 1280 0
20 1290 0
20 1300 0
20 1310 0
20 1320 0
20 1330 0
20 1340 0
20 1350 0
20 1360 0
20 1370 0
20 1380 0
20 1390 0
20 1400 0
20 1410 0
20 1420 0
20 1430 0
20 1440 0
20 1450 0
20 1460 0
20 1470 0
20 1480 0
20 1490 0
20 1500 0
20 1510 0
20 1520 0
20 1530 0
20 1540 0
20 1550 0
20 1560 0
20 1570 0
20 1580 0
20 1590 0
20 1600 0
20 1610 0
20 1620 0
20 1630 0
20 1640 0
20 1650 0
20 1660 0
20 1670 0
20 1680 0
20 1690 0
20 1700 0
20 1710 0
20 1720 0
20 1730 0
20 1740 0
20 1750 0
20 1760 0
20 1770 0
20 1780 0
20 1790 0
20 1800 0
20 1810 0
20 1820 0
20 1830 0
20 1840 0
20 1850 0
20 1860 0
20 1870 0
20 1880 0
20 1890 0
20 1900 0
20 1910 0
20 1920 0
20 1930 0
20 1940 0
20 1950 0
20 1960 0
20 1970 0
20 1980 0
20 1990 0
20 2000 0
20 2010 0
20 2020 0
20 2030 0
20 2040 0
20 2050 0
20 2060 0
20 2070 0
20 2080 0
20 2090 0
20 2100 0
20 2110 0
20 2120 0
20 2130 0
20 2140 0
20 2150 0
20 2160 0
20 2170 0
20 2180 0
20 2190 0
20 2200 0
20 2210 0
20 2220 0
20 2230 0
20 2240 0
20 2250 0
20 2260 0
20 2270 0
20 2280 0
20 2290 0
20 2300 0
20 2310 0
20 2320 0
20 2330 0
20 2340 0
20 2350 0
20 2360 0
20 2370 0
20 2380 0
20 2390 0
20 2400 0
20 2410 0
20 2420 0
20 2430 0
20 2440 0
20 2450 0
20 2460 0
20 2470 0
20 2480 0
20 2490 0
20 2500 0
20 2510 0
20 2520 0
20 2530 0
20 2540 0
20 2550 0
20 2560 0
20 2570 0
20 2580 0
20 2590 0
20 2600 0
20 2610 0
20 2620 0
20 2630 0
20 2640 0
20 2650 0
20 2660 0
20 2670 0
20 2680 0
20 2690 0
20 2700 0
20 2710 0
20 2720 0
20 2730 0
20 2740 0
20 2750 0
20 2760 0
20 2770 0
20 2780 0
20 2790 0
20 2800 0
20 2810 0
20 2820 0
20 2830 0
20 2840 0
20 2850 0
20 2860 0
20 2870 0
20 2880 0
20 2890 0
20 2900 0
20 2910 0
20 2920 0
20 2930 0
20 2940 0
20 2950 0
20 2960 0
20 2970 0
20 2980 0
20 2990 0
20 3000 0
30 0 0
30 10 0
30 20 0
30 30 0
30 40 0
30 50 0
30 60 0
30 70 0
30 80 0
30 90 0
30 100 0
30 110 0
30 120 0
30 130 0
30 140 0
30 150 0
30 160 0
30 170 0
30 180 0
30 190 0
30 200 0
30 210 0
30 220 0
30 230 0
30 240 0
30 250 0
30 260 0
30 270 0
30 280 0
30 290 0
30 300 0
30 310 0
30 320 0
30 330 0
30 340 0
30 350 0
30 360 0
30 370 0
30 380 0
30 390 0
30 400 0
30 410 0
30 420 0
30 430 0
30 440 0
30 450 0
30 460 0
30 470 0
30 480 0
30 490 0
30 500 0
30 510 0
30 520 0
30 530 0
30 540 0
30 550 0
30 560 0
30 570 0
30 580 0
30 590 0
30 600 0
30 610 0
30 620 0
30 630 0
30 640 0
30 650 0
30 660 0
30 670 0
30 680 0
30 690 0
30 700 0
30 710 0
30 720 0
30 730 0
30 740 0
30 750 0
30 760 0
30 770 0
30 780 0
30 790 0
30 800 0
30 810 0
30 820 0
30 830 0
30 840 0
30 850 0
30 860 0
30 870 0
30 880 0
30 890 0
30 900 0
30 910 0
30 920 0
30 930 0
30 940 0
30 950 0
30 960 0
30 970 0
30 980 0
30 990 0
30 1000 0
30 1010 0
30 1020 0
30 1030 0
30 1040 0
30 1050 0
30 1060 0
30 1070 0
30 1080 0
30 1090 0
30 1100 0
30 1110 0
30 1120 0
30 1130 0
30 1140 0
30 1150 0
30 1160 0
30 1170 0
30 1180 0
30 1190 0
30 1200 0
30 1210 0
30 1220 0
30 1230 0
30 1240 0
30 1250 0
30 1260 0
30 1270 0
30 1280 0
30 1290 0
30 1300 0
30 1310 0
30 1320 0
30 1330 0
30 1340 0
30 1350 0
30 1360 0
30 1370 0
30 1380 0
30 1390 0
30 1400 0
30 1410 0
30 1420 0
30 1430 0
30 1440 0
30 1450 0
30 1460 0
30 1470 0
30 1480 0
30 1490 0
30 1500 0
30 1510 0
30 1520 0
30 1530 0
30 1540 0
30 1550 0
30 1560 0
30 1570 0
30 1580 0
30 1590 0
[...]
POINT_DATA 90601
SCALARS P float
LOOKUP_TABLE default
132.9912
132.9912
133.0281
133.1162
133.2642
133.4709
133.7240
134.0027
134.2824
134.5403
134.7581
134.9233
135.0292
135.0735
135.0575
134.9848
134.8601
134.6887
134.4761
134.2275
133.9476
133.6408
133.3110
132.9614
132.5950
132.2142
131.8213
131.4179
131.0058
130.5861
130.1600
129.7285
129.2923
128.8522
128.4087
127.9623
127.5134
127.0624
126.6096
126.1553
125.6996
125.2427
124.7849
124.3263
123.8669
123.4068
122.9463
122.4853
122.0238
121.5620
121.0999
120.6376
120.1750
119.7122
119.2493
118.7862
118.3230
117.8596
117.3962
116.9327
116.4691
116.0055
115.5418
115.0780
114.6142
114.1504
113.6865
113.2226
112.7587
112.2947
111.8308
111.3668
110.9028
110.4388
109.9748
109.5108
109.0468
108.5827
108.1187
107.6546
107.1906
106.7265
106.2624
105.7984
105.3343
104.8702
104.4061
103.9421
103.4780
103.0139
102.5498
102.0857
101.6217
101.1576
100.6935
100.2294
99.7653
99.3012
98.8371
98.3730
97.9089
97.4449
96.9808
96.5167
96.0526
95.5885
95.1244
94.6603
94.1962
93.7321
93.2680
92.8039
92.3399
91.8758
91.4117
90.9476
90.4835
90.0194
89.5553
89.0912
88.6271
88.1630
87.6989
87.2348
86.7707
86.3067
85.8426
85.3785
84.9144
84.4503
83.9862
83.5221
83.0580
82.5939
82.1298
81.6657
81.2016
80.7375
80.2734
79.8094
79.3453
78.8812
78.4171
77.9530
77.4889
77.0248
76.5607
76.0966
75.6325
75.1684
74.7043
74.2402
73.7761
73.3121
72.8480
72.3839
71.9198
71.4557
70.9916
70.5275
70.0634
69.5993
69.1352
68.6711
68.2070
67.7429
67.2788
66.8147
66.3506
65.8865
65.4224
64.9583
64.4942
64.0301
63.5660
63.1019
62.6378
62.1737
61.7096
61.2455
60.7814
60.3173
59.8532
59.3890
58.9249
58.4608
57.9967
57.5326
57.0684
56.6043
56.1402
55.6761
55.2119
54.7478
54.2836
53.8195
53.3554
52.8912
52.4271
51.9629
51.4988
51.0346
50.5705
50.1064
49.6422
49.1781
48.7139
48.2498
47.7857
47.3216
46.8575
46.3934
45.9293
45.4653
45.0013
44.5373
44.0733
43.6094
43.1455
42.6816
42.2178
41.7541
41.2904
40.8268
40.3633
39.8999
39.4366
38.9734
38.5104
38.0475
37.5847
37.1222
36.6598
36.1977
35.7358
35.2741
34.8127
34.3517
33.8910
33.4306
32.9707
32.5111
32.0521
31.5935
31.1355
30.6781
30.2214
29.7653
29.3099
28.8553
28.4016
27.9487
27.4968
27.0459
26.5961
26.1475
25.7000
25.2539
24.8091
24.3658
23.9241
23.4839
23.0455
22.6088
22.1740
21.7413
21.3106
20.8821
20.4558
20.0320
19.6106
19.1919
18.7758
18.3626
17.9523
17.5450
17.1409
16.7401
16.3427
15.9488
15.5584
15.1719
14.7891
14.4103
14.0357
13.6652
13.2990
12.9373
12.5802
12.2278
11.8804
11.5383
11.2020
10.8721
10.5498
10.2371
9.9374
9.6565
9.4044
9.1986
9.0694
132.9912
132.9912
133.0281
133.1162
133.2642
133.4709
133.7240
134.0027
134.2824
134.5403
134.7581
134.9233
135.0292
135.0735
135.0575
134.9848
134.8601
134.6887
134.4761
134.2275
133.9476
133.6408
133.3110
132.9614
132.5950
132.2142
131.8213
131.4179
131.0058
130.5861
130.1600
129.7285
129.2923
128.8522
128.4087
127.9623
127.5134
127.0624
126.6096
126.1553
125.6996
125.2427
124.7849
124.3263
123.8669
123.4068
122.9463
122.4853
122.0238
121.5620
121.0999
120.6376
120.1750
119.7122
119.2493
118.7862
118.3230
117.8596
117.3962
116.9327
116.4691
116.0055
115.5418
115.0780
114.6142
114.1504
113.6865
113.2226
112.7587
112.2947
111.8308
111.3668
110.9028
110.4388
109.9748
109.5108
109.0468
108.5827
108.1187
107.6546
107.1906
106.7265
106.2624
105.7984
105.3343
104.8702
104.4061
103.9421
103.4780
103.0139
102.5498
102.0857
101.6217
101.1576
100.6935
100.2294
99.7653
99.3012
98.8371
98.3730
97.9089
97.4449
96.9808
96.5167
96.0526
95.5885
95.1244
94.6603
94.1962
93.7321
93.2680
92.8039
92.3399
91.8758
91.4117
90.9476
90.4835
90.0194
89.5553
89.0912
88.6271
88.1630
87.6989
87.2348
86.7707
86.3067
85.8426
85.3785
84.9144
84.4503
83.9862
83.5221
83.0580
82.5939
82.1298
81.6657
81.2016
80.7375
80.2734
79.8094
79.3453
78.8812
78.4171
77.9530
77.4889
77.0248
76.5607
76.0966
75.6325
75.1684
74.7043
74.2402
73.7761
73.3121
72.8480
72.3839
71.9198
71.4557
70.9916
70.5275
70.0634
69.5993
69.1352
68.6711
68.2070
67.7429
67.2788
66.8147
66.3506
65.8865
65.4224
64.9583
64.4942
64.0301
63.5660
63.1019
62.6378
62.1737
61.7096
61.2455
60.7814
60.3173
59.8532
59.3890
58.9249
58.4608
57.9967
57.5326
57.0684
56.6043
56.1402
55.6761
55.2119
54.7478
54.2836
53.8195
53.3554
52.8912
52.4271
51.9629
51.4988
51.0346
50.5705
50.1064
49.6422
49.1781
48.7139
48.2498
47.7857
47.3216
46.8575
46.3934
45.9293
45.4653
45.0013
44.5373
44.0733
43.6094
43.1455
42.6816
42.2178
41.7541
41.2904
40.8268
40.3633
39.8999
39.4366
38.9734
38.5104
38.0475
37.5847
37.1222
36.6598
36.1977
35.7358
35.2741
34.8127
34.3517
33.8910
33.4306
32.9707
32.5111
32.0521
31.5935
31.1355
30.6781
30.2214
29.7653
29.3099
28.8553
28.4016
27.9487
27.4968
27.0459
26.5961
26.1475
25.7000
25.2539
24.8091
24.3658
23.9241
23.4839
23.0455
22.6088
22.1740
21.7413
21.3106
20.8821
20.4558
20.0320
19.6106
19.1919
18.7758
18.3626
17.9523
17.5450
17.1409
16.7401
16.3427
15.9488
15.5584
15.1719
14.7891
14.4103
14.0357
13.6652
13.2990
12.9373
12.5802
12.2278
11.8804
11.5383
11.2020
10.8721
10.5498
10.2371
9.9374
9.6565
9.4044
9.1986
9.0694
133.2825
133.2825
133.3312
133.4468
133.6382
133.8988
134.2057
134.5267
134.8302
135.0910
135.2929
135.4277
135.4937
135.4932
135.4311
135.3135
135.1467
134.9369
134.6900
134.4111
134.1048
133.7751
133.4256
133.0592
132.6784
132.2854
131.8820
131.4697
131.0500
130.6239
130.1924
129.7562
129.3160
128.8725
128.4261
127.9773
127.5263
127.0735
126.6192
126.1635
125.7067
125.2489
124.7902
124.3308
123.8708
123.4103
122.9492
122.4878
122.0260
121.5640
121.1016
120.6390
120.1763
119.7133
119.2503
118.7870
118.3237
117.8603
117.3968
116.9332
116.4695
116.0058
115.5421
115.0783
114.6145
114.1506
113.6867
113.2228
112.7588
112.2949
111.8309
111.3669
110.9029
110.4389
109.9749
109.5108
109.0468
108.5828
108.1187
107.6546
107.1906
106.7265
106.2625
105.7984
105.3343
104.8702
104.4062
103.9421
103.4780
103.0139
102.5498
102.0857
101.6217
101.1576
100.6935
100.2294
99.7653
99.3012
98.8371
98.3730
97.9090
97.4449
96.9808
96.5167
96.0526
95.5885
95.1244
94.6603
94.1962
93.7321
93.2680
92.8039
92.3399
91.8758
91.4117
90.9476
90.4835
90.0194
89.5553
89.0912
88.6271
88.1630
87.6989
87.2348
86.7707
86.3067
85.8426
85.3785
84.9144
84.4503
83.9862
83.5221
83.0580
82.5939
82.1298
81.6657
81.2016
80.7375
80.2734
79.8094
79.3453
78.8812
78.4171
77.9530
77.4889
77.0248
76.5607
76.0966
75.6325
75.1684
74.7043
74.2402
73.7761
73.3121
72.8480
72.3839
71.9198
71.4557
70.9916
70.5275
70.0634
69.5993
69.1352
68.6711
68.2070
67.7429
67.2788
66.8147
66.3506
65.8865
65.4224
64.9583
64.4942
64.0301
63.5660
63.1019
62.6378
62.1737
61.7096
61.2455
60.7814
60.3173
59.8532
59.3890
58.9249
58.4608
57.9967
57.5326
57.0684
56.6043
56.1402
55.6761
55.2119
54.7478
54.2836
53.8195
53.3554
52.8912
52.4271
51.9629
51.4988
51.0346
50.5705
50.1064
49.6422
49.1781
48.7139
48.2498
47.7857
47.3216
46.8575
46.3934
45.9293
45.4653
45.0013
44.5373
44.0733
43.6094
43.1455
42.6816
42.2178
41.7541
41.2904
40.8268
40.3633
39.8999
39.4366
38.9734
38.5104
38.0475
37.5847
37.1222
36.6598
36.1977
35.7358
35.2741
34.8127
34.3517
33.8910
33.4306
32.9707
32.5111
32.0521
31.5935
31.1355
30.6781
30.2214
29.7653
29.3099
28.8553
28.4016
27.9487
27.4968
27.0459
26.5961
26.1475
25.7000
25.2539
24.8091
24.3658
23.9241
23.4839
23.0455
22.6088
22.1740
21.7413
21.3106
20.8821
20.4558
20.0320
19.6106
19.1919
18.7758
18.3626
17.9523
17.5450
17.1409
16.7401
16.3427
15.9488
15.5584
15.1719
14.7891
14.4103
14.0357
13.6652
13.2990
12.9373
12.5802
12.2278
11.8804
11.5383
11.2020
10.8721
10.5498
10.2371
9.9374
9.6565
9.4044
9.1986
9.0694
134.0590
134.0590
134.1444
134.3453
134.6709
135.0955
135.5589
135.9941
136.3508
136.6026
136.7437
136.7811
136.7279
136.5992
136.4088
136.1688
135.8892
135.5777
135.2406
134.8828
134.5080
134.1194
133.7193
133.3096
132.8919
132.4674
132.0373
131.6023
131.1633
130.7207
130.2752
129.8271
129.3768
128.9247
128.4709
128.0157
127.5593
127.1020
126.6437
126.1846
125.7249
125.2646
124.8038
124.3426
123.8810
123.4191
122.9569
122.4944
122.0318
121.5689
121.1059
120.6428
120.1796
119.7162
119.2527
118.7892
118.3256
117.8619
117.3982
116.9344
116.4706
116.0068
115.5429
115.0790
114.6151
114.1511
113.6872
113.2232
112.7592
112.2952
111.8312
111.3672
110.9031
110.4391
109.9750
109.5110
109.0469
108.5829
108.1188
107.6547
107.1907
106.7266
106.2625
105.7984
105.3344
104.8703
104.4062
103.9421
103.4780
103.0139
102.5499
102.0858
101.6217
101.1576
100.6935
100.2294
99.7653
99.3012
98.8371
98.3730
97.9090
97.4449
96.9808
96.5167
96.0526
95.5885
95.1244
94.6603
94.1962
93.7321
93.2680
92.8039
92.3399
91.8758
91.4117
90.9476
90.4835
90.0194
89.5553
89.0912
88.6271
88.1630
87.6989
87.2348
86.7707
86.3067
85.8426
85.3785
84.9144
84.4503
83.9862
83.5221
83.0580
82.5939
82.1298
81.6657
81.2016
80.7375
80.2734
79.8094
79.3453
78.8812
78.4171
77.9530
77.4889
77.0248
76.5607
76.0966
75.6325
75.1684
74.7043
74.2402
73.7761
73.3121
72.8480
72.3839
71.9198
71.4557
70.9916
70.5275
70.0634
69.5993
69.1352
68.6711
68.2070
67.7429
67.2788
66.8147
66.3506
65.8865
65.4224
64.9583
64.4942
64.0301
63.5660
63.1019
62.6378
62.1737
61.7096
61.2455
60.7814
60.3173
59.8532
59.3890
58.9249
58.4608
57.9967
57.5326
57.0684
56.6043
56.1402
55.6761
55.2119
54.7478
54.2836
53.8195
53.3554
52.8912
52.4271
51.9629
51.4988
51.0346
50.5705
50.1064
49.6422
49.1781
48.7139
48.2498
47.7857
47.3216
46.8575
46.3934
45.9293
45.4653
45.0013
44.5373
44.0733
43.6094
43.1455
42.6816
42.2178
41.7541
41.2904
40.8268
40.3633
39.8999
39.4366
38.9734
38.5104
38.0475
37.5847
37.1222
36.6598
36.1977
35.7358
35.2741
34.8127
34.3517
33.8910
33.4306
32.9707
32.5111
32.0521
31.5935
31.1355
30.6781
30.2214
29.7653
29.3099
28.8553
28.4016
27.9487
27.4968
27.0459
26.5961
26.1475
25.7000
25.2539
24.8091
24.3658
23.9241
23.4839
23.0455
22.6088
22.1740
21.7413
21.3106
20.8821
20.4558
20.0320
19.6106
19.1919
18.7758
18.3626
17.9523
17.5450
17.1409
16.7401
16.3427
15.9488
15.5584
15.1719
14.7891
14.4103
14.0357
13.6652
13.2990
12.9373
12.5802
12.2278
11.8804
11.5383
11.2020
10.8721
10.5498
10.2371
9.9374
9.6565
9.4044
9.1986
9.0694
135.6275
135.6275
135.8059
136.2244
136.8935
137.7280
138.5529
139.2136
139.6319
139.8001
139.7520
139.5364
139.2011
138.7860
138.3209
137.8272
137.3189
136.8050
136.2911
135.7801
135.2735
134.7719
134.2754
133.7835
133.2959
132.8120
132.3313
131.8534
131.3778
130.9042
130.4323
129.9617
129.4922
129.0237
128.5560
128.0889
127.6223
127.1562
126.6904
126.2249
125.7597
125.2947
124.8298
124.3651
123.9005
123.4359
122.9715
122.5071
122.0428
121.5785
121.1143
120.6500
120.1858
119.7217
119.2575
118.7933
118.3292
117.8651
117.4010
116.9368
116.4727
116.0086
115.5445
115.0804
114.6163
114.1522
113.6881
113.2240
112.7599
112.2958
111.8317
111.3676
110.9036
110.4395
109.9754
109.5113
109.0472
108.5831
108.1190
107.6549
107.1908
106.7267
106.2626
105.7985
105.3344
104.8704
104.4063
103.9422
103.4781
103.0140
102.5499
102.0858
101.6217
101.1576
100.6935
100.2294
99.7653
99.3012
98.8372
98.3731
97.9090
97.4449
96.9808
96.5167
96.0526
95.5885
95.1244
94.6603
94.1962
93.7321
93.2680
92.8040
92.3399
91.8758
91.4117
90.9476
90.4835
90.0194
89.5553
89.0912
88.6271
88.1630
87.6989
87.2348
86.7707
86.3067
85.8426
85.3785
84.9144
84.4503
83.9862
83.5221
83.0580
82.5939
82.1298
81.6657
81.2016
80.7375
80.2734
79.8094
79.3453
78.8812
78.4171
77.9530
77.4889
77.0248
76.5607
76.0966
75.6325
75.1684
74.7043
74.2402
73.7761
73.3121
72.8480
72.3839
71.9198
71.4557
70.9916
70.5275
70.0634
69.5993
69.1352
68.6711
68.2070
67.7429
67.2788
66.8147
66.3506
65.8865
65.4224
64.9583
64.4942
64.0301
63.5660
63.1019
62.6378
62.1737
61.7096
61.2455
60.7814
60.3173
59.8532
59.3890
58.9249
58.4608
57.9967
57.5326
57.0684
56.6043
56.1402
55.6761
55.2119
54.7478
54.2836
53.8195
53.3554
52.8912
52.4271
51.9629
51.4988
51.0346
50.5705
50.1064
49.6422
49.1781
48.7139
48.2498
47.7857
47.3216
46.8575
46.3934
45.9293
45.4653
45.0013
44.5373
44.0733
43.6094
43.1455
42.6816
42.2178
41.7541
41.2904
40.8268
40.3633
39.8999
39.4366
38.9734
38.5104
38.0475
37.5847
37.1222
36.6598
36.1977
35.7358
35.2741
34.8127
34.3517
33.8910
33.4306
32.9707
32.5111
32.0521
31.5935
31.1355
30.6781
30.2214
29.7653
29.3099
28.8553
28.4016
27.9487
27.4968
27.0459
26.5961
26.1475
25.7000
25.2539
24.8091
24.3658
23.9241
23.4839
23.0455
22.6088
22.1740
21.7413
21.3106
20.8821
20.4558
20.0320
19.6106
19.1919
18.7758
18.3626
17.9523
17.5450
17.1409
16.7401
16.3427
15.9488
15.5584
15.1719
14.7891
14.4103
14.0357
13.6652
13.2990
12.9373
12.5802
12.2278
11.8804
11.5383
11.2020
10.8721
10.5498
10.2371
9.9374
9.6565
9.4044
9.1986
9.0694
138.4548
138.4548
138.8562
139.8056
141.3237
143.1496
144.7397
145.7473
146.1071
145.9220
145.3492
144.5354
143.5941
142.6035
141.6132
140.6517
139.7338
138.8652
138.0462
137.2742
136.5452
135.8544
135.1970
134.5686
133.9651
133.3829
132.8187
132.2699
131.7340
131.2091
130.6935
130.1857
129.6845
129.1889
128.6980
128.2111
127.7276
127.2469
126.7687
126.2925
125.8181
125.3451
124.8735
124.4029
123.9332
123.4643
122.9961
122.5285
122.0614
121.5946
121.1283
120.6622
120.1965
119.7309
119.2656
118.8004
118.3353
117.8704
117.4056
116.9409
116.4763
116.0117
115.5472
115.0828
114.6184
114.1540
113.6897
113.2254
112.7612
112.2969
111.8327
111.3685
110.9043
110.4401
109.9759
109.5118
109.0476
108.5835
108.1193
107.6552
107.1911
106.7269
106.2628
105.7987
105.3346
104.8705
104.4064
103.9423
103.4782
103.0141
102.5500
102.0859
101.6218
101.1577
100.6936
100.2295
99.7654
99.3013
98.8372
98.3731
97.9090
97.4449
96.9808
96.5167
96.0526
95.5885
95.1244
94.6603
94.1962
93.7321
93.2680
92.8040
92.3399
91.8758
91.4117
90.9476
90.4835
90.0194
89.5553
89.0912
88.6271
88.1630
87.6989
87.2348
86.7707
86.3067
85.8426
85.3785
84.9144
84.4503
83.9862
83.5221
83.0580
82.5939
82.1298
81.6657
81.2016
80.7375
80.2734
79.8094
79.3453
78.8812
78.4171
77.9530
77.4889
77.0248
76.5607
76.0966
75.6325
75.1684
74.7043
74.2402
73.7761
73.3121
72.8480
72.3839
71.9198
71.4557
70.9916
70.5275
70.0634
69.5993
69.1352
68.6711
68.2070
67.7429
67.2788
66.8147
66.3506
65.8865
65.4224
64.9583
64.4942
64.0301
63.5660
63.1019
62.6378
62.1737
61.7096
61.2455
60.7814
60.3173
59.8532
59.3890
58.9249
58.4608
57.9967
57.5326
57.0684
56.6043
56.1402
55.6761
55.2119
54.7478
54.2836
53.8195
53.3554
52.8912
52.4271
51.9629
51.4988
51.0346
50.5705
50.1064
49.6422
49.1781
48.7139
48.2498
47.7857
47.3216
46.8575
46.3934
45.9293
45.4653
45.0013
44.5373
44.0733
43.6094
43.1455
42.6816
42.2178
41.7541
41.2904
40.8268
40.3633
39.8999
39.4366
38.9734
38.5104
38.0475
37.5847
37.1222
36.6598
36.1977
35.7358
35.2741
34.8127
34.3517
33.8910
33.4306
32.9707
32.5111
32.0521
31.5935
31.1355
30.6781
30.2214
29.7653
29.3099
28.8553
28.4016
27.9487
27.4968
27.0459
26.5961
26.1475
25.7000
25.2539
24.8091
24.3658
23.9241
23.4839
23.0455
22.6088
22.1740
21.7413
21.3106
20.8821
20.4558
20.0320
19.6106
19.1919
18.7758
18.3626
17.9523
17.5450
17.1409
16.7401
16.3427
15.9488
15.5584
15.1719
14.7891
14.4103
14.0357
13.6652
13.2990
12.9373
12.5802
12.2278
11.8804
11.5383
11.2020
10.8721
10.5498
10.2371
9.9374
9.6565
9.4044
9.1986
9.0694
143.2082
143.2082
144.1275
146.3499
149.9805
154.2597
157.3361
158.5896
158.2882
156.9579
155.0683
152.9496
150.8052
148.7480
146.8324
145.0783
143.4862
142.0464
140.7444
139.5644
138.4906
137.5084
136.6047
135.7679
134.9878
134.2559
133.5648
132.9080
132.2804
131.6774
131.0952
130.5306
129.9809
129.4438
128.9175
128.4002
127.8906
127.3876
126.8902
126.3976
125.9089
125.4238
124.9416
124.4619
123.9844
123.5088
123.0347
122.5620
122.0905
121.6200
121.1503
120.6814
120.2132
119.7455
119.2783
118.8115
118.3450
117.8789
117.4130
116.9474
116.4819
116.0167
115.5515
115.0866
114.6217
114.1569
113.6922
113.2276
112.7631
112.2986
111.8342
111.3698
110.9054
110.4411
109.9768
109.5125
109.0483
108.5841
108.1199
107.6557
107.1915
106.7273
106.2631
105.7990
105.3348
104.8707
104.4066
103.9424
103.4783
103.0142
102.5501
102.0860
101.6219
101.1577
100.6936
100.2295
99.7654
99.3013
98.8372
98.3731
97.9090
97.4449
96.9808
96.5167
96.0526
95.5885
95.1244
94.6603
94.1962
93.7322
93.2681
92.8040
92.3399
91.8758
91.4117
90.9476
90.4835
90.0194
89.5553
89.0912
88.6271
88.1630
87.6989
87.2348
86.7707
86.3067
85.8426
85.3785
84.9144
84.4503
83.9862
83.5221
83.0580
82.5939
82.1298
81.6657
81.2016
80.7375
80.2734
79.8094
79.3453
78.8812
78.4171
77.9530
77.4889
77.0248
76.5607
76.0966
75.6325
75.1684
74.7043
74.2402
73.7761
73.3121
72.8480
72.3839
71.9198
71.4557
70.9916
70.5275
70.0634
69.5993
69.1352
68.6711
68.2070
67.7429
67.2788
66.8147
66.3506
65.8865
65.4224
64.9583
64.4942
64.0301
63.5660
63.1019
62.6378
62.1737
61.7096
61.2455
60.7814
60.3173
59.8532
59.3890
58.9249
58.4608
57.9967
57.5326
57.0684
56.6043
56.1402
55.6761
55.2119
54.7478
54.2836
53.8195
53.3554
52.8912
52.4271
51.9629
51.4988
51.0346
50.5705
50.1064
49.6422
49.1781
48.7139
48.2498
47.7857
47.3216
46.8575
46.3934
45.9293
45.4653
45.0013
44.5373
44.0733
43.6094
43.1455
42.6816
42.2178
41.7541
41.2904
40.8268
40.3633
39.8999
39.4366
38.9734
38.5104
38.0475
37.5847
37.1222
36.6598
36.1977
35.7358
35.2741
34.8127
34.3517
33.8910
33.4306
32.9707
32.5111
32.0521
31.5935
31.1355
30.6781
30.2214
29.7653
29.3099
28.8553
28.4016
27.9487
27.4968
27.0459
26.5961
26.1475
25.7000
25.2539
24.8091
24.3658
23.9241
23.4839
23.0455
22.6088
22.1740
21.7413
21.3106
20.8821
20.4558
20.0320
19.6106
19.1919
18.7758
18.3626
17.9523
17.5450
17.1409
16.7401
16.3427
15.9488
15.5584
15.1719
14.7891
14.4103
14.0357
13.6652
13.2990
12.9373
12.5802
12.2278
11.8804
11.5383
11.2020
10.8721
10.5498
10.2371
9.9374
9.6565
9.4044
9.1986
9.0694
150.7314
150.7314
152.8013
158.0133
167.0054
177.7828
183.1661
183.2823
180.2266
175.7441
170.8810
166.1690
161.8402
157.9690
154.5541
151.5609
148.9422
146.6492
144.6361
142.8613
141.2888
139.8872
138.6301
137.4948
136.4622
135.5162
134.6433
133.8320
133.0728
132.3577
131.6798
131.0334
130.4138
129.8168
129.2391
128.6778
128.1304
127.5948
127.0694
126.5527
126.0433
125.5402
125.0426
124.5495
124.0605
123.5749
123.0922
122.6120
122.1340
121.6578
121.1833
120.7102
120.2382
119.7673
119.2973
118.8281
118.3595
117.8916
117.4241
116.9571
116.4904
116.0241
115.5580
115.0923
114.6267
114.1613
113.6961
113.2310
112.7660
112.3012
111.8364
111.3718
110.9072
110.4426
109.9782
109.5137
109.0493
108.5850
108.1207
107.6564
107.1921
106.7279
106.2636
105.7994
105.3352
104.8710
104.4069
103.9427
103.4785
103.0144
102.5503
102.0861
101.6220
101.1579
100.6937
100.2296
99.7655
99.3014
98.8373
98.3732
97.9091
97.4450
96.9809
96.5168
96.0527
95.5886
95.1245
94.6604
94.1963
93.7322
93.2681
92.8040
92.3399
91.8758
91.4117
90.9476
90.4835
90.0194
89.5553
89.0912
88.6271
88.1630
87.6989
87.2348
86.7708
86.3067
85.8426
85.3785
84.9144
84.4503
83.9862
83.5221
83.0580
82.5939
82.1298
81.6657
81.2016
80.7375
80.2734
79.8094
79.3453
78.8812
78.4171
77.9530
77.4889
77.0248
76.5607
76.0966
75.6325
75.1684
74.7043
74.2402
73.7761
73.3121
72.8480
72.3839
71.9198
71.4557
70.9916
70.5275
70.0634
69.5993
69.1352
68.6711
68.2070
67.7429
67.2788
66.8147
66.3506
65.8865
65.4224
64.9583
64.4942
64.0301
63.5660
63.1019
62.6378
62.1737
61.7096
61.2455
60.7814
60.3173
59.8532
59.3890
58.9249
58.4608
57.9967
57.5326
57.0684
56.6043
56.1402
55.6761
55.2119
54.7478
54.2836
53.8195
53.3554
52.8912
52.4271
51.9629
51.4988
51.0346
50.5705
50.1064
49.6422
49.1781
48.7139
48.2498
47.7857
47.3216
46.8575
46.3934
45.9293
45.4653
45.0013
44.5373
44.0733
43.6094
43.1455
42.6816
42.2178
41.7541
41.2904
40.8268
40.3633
39.8999
39.4366
38.9734
38.5104
38.0475
37.5847
37.1222
36.6598
36.1977
35.7358
35.2741
34.8127
34.3517
33.8910
33.4306
32.9707
32.5111
32.0521
31.5935
31.1355
30.6781
30.2214
29.7653
29.3099
28.8553
28.4016
27.9487
27.4968
27.0459
26.5961
26.1475
25.7000
25.2539
24.8091
24.3658
23.9241
23.4839
23.0455
22.6088
22.1740
21.7413
21.3106
20.8821
20.4558
20.0320
19.6106
19.1919
18.7758
18.3626
17.9523
17.5450
17.1409
16.7401
16.3427
15.9488
15.5584
15.1719
14.7891
14.4103
14.0357
13.6652
13.2990
12.9373
12.5802
12.2278
11.8804
11.5383
11.2020
10.8721