# vtk DataFile Version 5.0
Example 3D regular grid VTK file.
ASCII
DATASET UNSTRUCTURED_GRID
POINTS 90601 float
0 0 0
0 10 0
0 20 0
0 30 0
0 40 0
0 50 0
0 60 0
0 70 0
0 80 0
0 90 0
0 100 0
0 110 0
0 120 0
0 130 0
0 140 0
0 150 0
0 160 0
0 170 0
0 180 0
0 190 0
0 200 0
0 210 0
0 220 0
0 230 0
0 240 0
0 250 0
0 260 0
0 270 0
0 280 0
0 290 0
0 300 0
0 310 0
0 320 0
0 330 0
0 340 0
0 350 0
0 360 0
0 370 0
0 380 0
0 390 0
0 400 0
0 410 0
0 420 0
0 430 0
0 440 0
0 450 0
0 460 0
0 470 0
0 480 0
0 490 0
0 500 0
0 510 0
0 520 0
0 530 0
0 540 0
0 550 0
0 560 0
0 570 0
0 580 0
0 590 0
0 600 0
0 610 0
0 620 0
0 630 0
0 640 0
0 650 0
0 660 0
0 670 0
0 680 0
0 690 0
0 700 0
0 710 0
0 720 0
0 730 0
0 740 0
0 750 0
0 760 0
0 770 0
0 780 0
0 790 0
0 800 0
0 810 0
0 820 0
0 830 0
0 840 0
0 850 0
0 860 0
0 870 0
0 880 0
0 890 0
0 900 0
0 910 0
0 920 0
0 930 0
0 940 0
0 950 0
0 960 0
0 970 0
0 980 0
0 990 0
0 1000 0
0 1010 0
0 1020 0
0 1030 0
0 1040 0
0 1050 0
0 1060 0
0 1070 0
0 1080 0
0 1090 0
0 1100 0
0 1110 0
0 1120 0
0 1130 0
0 1140 0
0 1150 0
0 1160 0
0 1170 0
0 1180 0
0 1190 0
0 1200 0
0 1210 0
0 1220 0
0 1230 0
0 1240 0
0 1250 0
0 1260 0
0 1270 0
0 1280 0
0 1290 0
0 1300 0
0 1310 0
0 1320 0
0 1330 0
0 1340 0
0 1350 0
0 1360 0
0 1370 0
0 1380 0
0 1390 0
0 1400 0
0 1410 0
0 1420 0
0 1430 0
0 1440 0
0 1450 0
0 1460 0
0 1470 0
0 1480 0
0 1490 0
0 1500 0
0 1510 0
0 1520 0
0 1530 0
0 1540 0
0 1550 0
0 1560 0
0 1570 0
0 1580 0
0 1590 0
0 1600 0
0 1610 0
0 1620 0
0 1630 0
0 1640 0
0 1650 0
0 1660 0
0 1670 0
0 1680 0
0 1690 0
0 1700 0
0 1710 0
0 1720 0
0 1730 0
0 1740 0
0 1750 0
0 1760 0
0 1770 0
0 1780 0
0 1790 0
0 1800 0
0 1810 0
0 1820 0
0 1830 0
0 1840 0
0 1850 0
0 1860 0
0 1870 0
0 1880 0
0 1890 0
0 1900 0
0 1910 0
0 1920 0
0 1930 0
0 1940 0
0 1950 0
0 1960 0
0 1970 0
0 1980 0
0 1990 0
0 2000 0
0 2010 0
0 2020 0
0 2030 0
0 2040 0
0 2050 0
0 2060 0
0 2070 0
0 2080 0
0 2090 0
0 2100 0
0 2110 0
0 2120 0
0 2130 0
0 2140 0
0 2150 0
0 2160 0
0 2170 0
0 2180 0
0 2190 0
0 2200 0
0 2210 0
0 2220 0
0 2230 0
0 2240 0
0 2250 0
0 2260 0
0 2270 0
0 2280 0
0 2290 0
0 2300 0
0 2310 0
0 2320 0
0 2330 0
0 2340 0
0 2350 0
0 2360 0
0 2370 0
0 2380 0
0 2390 0
0 2400 0
0 2410 0
0 2420 0
0 2430 0
0 2440 0
0 2450 0
0 2460 0
0 2470 0
0 2480 0
0 2490 0
0 2500 0
0 2510 0
0 2520 0
0 2530 0
0 2540 0
0 2550 0
0 2560 0
0 2570 0
0 2580 0
0 2590 0
0 2600 0
0 2610 0
0 2620 0
0 2630 0
0 2640 0
0 2650 0
0 2660 0
0 2670 0
0 2680 0
0 2690 0
0 2700 0
0 2710 0
0 2720 0
0 2730 0
0 2740 0
0 2750 0
0 2760 0
0 2770 0
0 2780 0
0 2790 0
0 2800 0
0 2810 0
0 2820 0
0 2830 0
0 2840 0
0 2850 0
0 2860 0
0 2870 0
0 2880 0
0 2890 0
0 2900 0
0 2910 0
0 2920 0
0 2930 0
0 2940 0
0 2950 0
0 2960 0
0 2970 0
0 2980 0
0 2990 0
0 3000 0
10 0 0
10 10 0
10 20 0
10 30 0
10 40 0
10 50 0
10 60 0
10 70 0
10 80 0
10 90 0
10 100 0
10 110 0
10 120 0
10 130 0
10 140 0
10 150 0
10 160 0
10 170 0
10 180 0
10 190 0
10 200 0
10 210 0
10 220 0
10 230 0
10 240 0
10 250 0
10 260 0
10 270 0
10 280 0
10 290 0
10 300 0
10 310 0
10 320 0
10 330 0
10 340 0
10 350 0
10 360 0
10 370 0
10 380 0
10 390 0
10 400 0
10 410 0
10 420 0
10 430 0
10 440 0
10 450 0
10 460 0
10 470 0
10 480 0
10 490 0
10 500 0
10 510 0
10 520 0
10 530 0
10 540 0
10 550 0
10 560 0
10 570 0
10 580 0
10 590 0
10 600 0
10 610 0
10 620 0
10 630 0
10 640 0
10 650 0
10 660 0
10 670 0
10 680 0
10 690 0
10 700 0
10 710 0
10 720 0
10 730 0
10 740 0
10 750 0
10 760 0
10 770 0
10 780 0
10 790 0
10 800 0
10 810 0
10 820 0
10 830 0
10 840 0
10 850 0
10 860 0
10 870 0
10 880 0
10 890 0
10 900 0
10 910 0
10 920 0
10 930 0
10 940 0
10 950 0
10 960 0
10 970 0
10 980 0
10 990 0
10 1000 0
10 1010 0
10 1020 0
10 1030 0
10 1040 0
10 1050 0
10 1060 0
10 1070 0
10 1080 0
10 1090 0
10 1100 0
10 1110 0
10 1120 0
10 1130 0
10 1140 0
10 1150 0
10 1160 0
10 1170 0
10 1180 0
10 1190 0
10 1200 0
10 1210 0
10 1220 0
10 1230 0
10 1240 0
10 1250 0
10 1260 0
10 1270 0
10 1280 0
10 1290 0
10 1300 0
10 1310 0
10 1320 0
10 1330 0
10 1340 0
10 1350 0
10 1360 0
10 1370 0
10 1380 0
10 1390 0
10 1400 0
10 1410 0
10 1420 0
10 1430 0
10 1440 0
10 1450 0
10 1460 0
10 1470 0
10 1480 0
10 1490 0
10 1500 0
10 1510 0
10 1520 0
10 1530 0
10 1540 0
10 1550 0
10 1560 0
10 1570 0
10 1580 0
10 1590 0
10 1600 0
10 1610 0
10 1620 0
10 1630 0
10 1640 0
10 1650 0
10 1660 0
10 1670 0
10 1680 0
10 1690 0
10 1700 0
10 1710 0
10 1720 0
10 1730 0
10 1740 0
10 1750 0
10 1760 0
10 1770 0
10 1780 0
10 1790 0
10 1800 0
10 1810 0
10 1820 0
10 1830 0
10 1840 0
10 1850 0
10 1860 0
10 1870 0
10 1880 0
10 1890 0
10 1900 0
10 1910 0
10 1920 0
10 1930 0
10 1940 0
10 1950 0
10 1960 0
10 1970 0
10 1980 0
10 1990 0
10 2000 0
10 2010 0
10 2020 0
10 2030 0
10 2040 0
10 2050 0
10 2060 0
10 2070 0
10 2080 0
10 2090 0
10 2100 0
10 2110 0
10 2120 0
10 2130 0
10 2140 0
10 2150 0
10 2160 0
10 2170 0
10 2180 0
10 2190 0
10 2200 0
10 2210 0
10 2220 0
10 2230 0
10 2240 0
10 2250 0
10 2260 0
10 2270 0
10 2280 0
10 2290 0
10 2300 0
10 2310 0
10 2320 0
10 2330 0
10 2340 0
10 2350 0
10 2360 0
10 2370 0
10 2380 0
10 2390 0
10 2400 0
10 2410 0
10 2420 0
10 2430 0
10 2440 0
10 2450 0
10 2460 0
10 2470 0
10 2480 0
10 2490 0
10 2500 0
10 2510 0
10 2520 0
10 2530 0
10 2540 0
10 2550 0
10 2560 0
10 2570 0
10 2580 0
10 2590 0
10 2600 0
10 2610 0
10 2620 0
10 2630 0
10 2640 0
10 2650 0
10 2660 0
10 2670 0
10 2680 0
10 2690 0
10 2700 0
10 2710 0
10 2720 0
10 2730 0
10 2740 0
10 2750 0
10 2760 0
10 2770 0
10 2780 0
10 2790 0
10 2800 0
10 2810 0
10 2820 0
10 2830 0
10 2840 0
10 2850 0
10 2860 0
10 2870 0
10 2880 0
10 2890 0
10 2900 0
10 2910 0
10 2920 0
10 2930 0
10 2940 0
10 2950 0
10 2960 0
10 2970 0
10 2980 0
10 2990 0
10 3000 0
20 0 0
20 10 0
20 20 0
20 30 0
20 40 0
20 50 0
20 60 0
20 70 0
20 80 0
20 90 0
20 100 0
20 110 0
20 120 0
20 130 0
20 140 0
20 150 0
20 160 0
20 170 0
20 180 0
20 190 0
20 200 0
20 210 0
20 220 0
20 230 0
20 240 0
20 250 0
20 260 0
20 270 0
20 280 0
20 290 0
20 300 0
20 310 0
20 320 0
20 330 0
20 340 0
20 350 0
20 360 0
20 370 0
20 380 0
20 390 0
20 400 0
20 410 0
20 420 0
20 430 0
20 440 0
20 450 0
20 460 0
20 470 0
20 480 0
20 490 0
20 500 0
20 510 0
20 520 0
20 530 0
20 540 0
20 550 0
20 560 0
20 570 0
20 580 0
20 590 0
20 600 0
20 610 0
20 620 0
20 630 0
20 640 0
20 650 0
20 660 0
20 670 0
20 680 0
20 690 0
20 700 0
20 710 0
20 720 0
20 730 0
20 740 0
20 750 0
20 760 0
20 770 0
20 780 0
20 790 0
20 800 0
20 810 0
20 820 0
20 830 0
20 840 0
20 850 0
20 860 0
20 870 0
20 880 0
20 890 0
20 900 0
20 910 0
20 920 0
20 930 0
20 940 0
20 950 0
20 960 0
20 970 0
20 980 0
20 990 0
20 1000 0
20 1010 0
20 1020 0
20 1030 0
20 1040 0
20 1050 0
20 1060 0
20 1070 0
20 1080 0
20 1090 0
20 1100 0
20 1110 0
20 1120 0
20 1130 0
20 1140 0
20 1150 0
20 1160 0
20 1170 0
20 1180 0
20 1190 0
20 1200 0
20 1210 0
20 1220 0
20 1230 0
20 1240 0
20 1250 0
20 1260 0
20 1270 0
20 1280 0
20 1290 0
20 1300 0
20 1310 0
20 1320 0
20 1330 0
20 1340 0
20 1350 0
20 1360 0
20 1370 0
20 1380 0
20 1390 0
20 1400 0
20 1410 0
20 1420 0
20 1430 0
20 1440 0
20 1450 0
20 1460 0
20 1470 0
20 1480 0
20 1490 0
20 1500 0
20 1510 0
20 1520 0
20 1530 0
20 1540 0
20 1550 0
20 1560 0
20 1570 0
20 1580 0
20 1590 0
20 1600 0
20 1610 0
20 1620 0
20 1630 0
20 1640 0
20 1650 0
20 1660 0
20 1670 0
20 1680 0
20 1690 0
20 1700 0
20 1710 0
20 1720 0
20 1730 0
20 1740 0
20 1750 0
20 1760 0
20 1770 0
20 1780 0
20 1790 0
20 1800 0
20 1810 0
20 1820 0
20 1830 0
20 1840 0
20 1850 0
20 1860 0
20 1870 0
20 1880 0
20 1890 0
20 1900 0
20 1910 0
20 1920 0
20 1930 0
20 1940 0
20 1950 0
20 1960 0
20 1970 0
20 1980 0
20 1990 0
20 2000 0
20 2010 0
20 2020 0
20 2030 0
20 2040 0
20 2050 0
20 2060 0
20 2070 0
20 2080 0
20 2090 0
20 2100 0
20 2110 0
20 2120 0
20 2130 0
20 2140 0
20 2150 0
20 2160 0
20 2170 0
20 2180 0
20 2190 0
20 2200 0
20 2210 0
20 2220 0
20 2230 0
20 2240 0
20 2250 0
20 2260 0
20 2270 0
20 2280 0
20 2290 0
20 2300 0
20 2310 0
20 2320 0
20 2330 0
20 2340 0
20 2350 0
20 2360 0
20 2370 0
20 2380 0
20 2390 0
20 2400 0
20 2410 0
20 2420 0
20 2430 0
20 2440 0
20 2450 0
20 2460 0
20 2470 0
20 2480 0
20 2490 0
20 2500 0
20 2510 0
20 2520 0
20 2530 0
20 2540 0
20 2550 0
20 2560 0
20 2570 0
20 2580 0
20 2590 0
20 2600 0
20 2610 0
20 2620 0
20 2630 0
20 2640 0
20 2650 0
20 2660 0
20 2670 0
20 2680 0
20 2690 0
20 2700 0
20 2710 0
20 2720 0
20 2730 0
20 2740 0
20 2750 0
20 2760 0
20 2770 0
20 2780 0
20 2790 0
20 2800 0
20 2810 0
20 2820 0
20 2830 0
20 2840 0
20 2850 0
20 2860 0
20 2870 0
20 2880 0
20 2890 0
20 2900 0
20 2910 0
20 2920 0
20 2930 0
20 2940 0
20 2950 0
20 2960 0
20 2970 0
20 2980 0
20 2990 0
20 3000 0
30 0 0
30 10 0
30 20 0
30 30 0
30 40 0
30 50 0
30 60 0
30 70 0
30 80 0
30 90 0
30 100 0
30 110 0
30 120 0
30 130 0
30 140 0
30 150 0
30 160 0
30 170 0
30 180 0
30 190 0
30 200 0
30 210 0
30 220 0
30 230 0
30 240 0
30 250 0
30 260 0
30 270 0
30 280 0
30 290 0
30 300 0
30 310 0
30 320 0
30 330 0
30 340 0
30 350 0
30 360 0
30 370 0
30 380 0
30 390 0
30 400 0
30 410 0
30 420 0
30 430 0
30 440 0
30 450 0
30 460 0
30 470 0
30 480 0
30 490 0
30 500 0
30 510 0
30 520 0
30 530 0
30 540 0
30 550 0
30 560 0
30 570 0
30 580 0
30 590 0
30 600 0
30 610 0
30 620 0
30 630 0
30 640 0
30 650 0
30 660 0
30 670 0
30 680 0
30 690 0
30 700 0
30 710 0
30 720 0
30 730 0
30 740 0
30 750 0
30 760 0
30 770 0
30 780 0
30 790 0
30 800 0
30 810 0
30 820 0
30 830 0
30 840 0
30 850 0
30 860 0
30 870 0
30 880 0
30 890 0
30 900 0
30 910 0
30 920 0
30 930 0
30 940 0
30 950 0
30 960 0
30 970 0
30 980 0
30 990 0
30 1000 0
30 1010 0
30 1020 0
30 1030 0
30 1040 0
30 1050 0
30 1060 0
30 1070 0
30 1080 0
30 1090 0
30 1100 0
30 1110 0
30 1120 0
30 1130 0
30 1140 0
30 1150 0
30 1160 0
30 1170 0
30 1180 0
30 1190 0
30 1200 0
30 1210 0
30 1220 0
30 1230 0
30 1240 0
30 1250 0
30 1260 0
30 1270 0
30 1280 0
30 1290 0
30 1300 0
30 1310 0
30 1320 0
30 1330 0
30 1340 0
30 1350 0
30 1360 0
30 1370 0
30 1380 0
30 1390 0
30 1400 0
30 1410 0
30 1420 0
30 1430 0
30 1440 0
30 1450 0
30 1460 0
30 1470 0
30 1480 0
30 1490 0
30 1500 0
30 1510 0
30 1520 0
30 1530 0
30 1540 0
30 1550 0
30 1560 0
30 1570 0
30 1580 0
30 1590 0
[...]
POINT_DATA 90601
SCALARS P float
LOOKUP_TABLE default
137.7025
137.7025
137.7394
137.8275
137.9755
138.1822
138.4353
138.7140
138.9937
139.2517
139.4694
139.6347
139.7405
139.7848
139.7688
139.6961
139.5714
139.4000
139.1874
138.9388
138.6589
138.3521
138.0223
137.6727
137.3063
136.9255
136.5326
136.1293
135.7171
135.2974
134.8713
134.4398
134.0036
133.5635
133.1200
132.6736
132.2247
131.7737
131.3209
130.8666
130.4109
129.9541
129.4962
129.0376
128.5782
128.1182
127.6576
127.1966
126.7351
126.2733
125.8112
125.3489
124.8863
124.4235
123.9606
123.4975
123.0343
122.5710
122.1075
121.6440
121.1804
120.7168
120.2531
119.7893
119.3255
118.8617
118.3978
117.9339
117.4700
117.0061
116.5421
116.0781
115.6141
115.1501
114.6861
114.2221
113.7581
113.2940
112.8300
112.3659
111.9019
111.4378
110.9737
110.5097
110.0456
109.5815
109.1174
108.6534
108.1893
107.7252
107.2611
106.7970
106.3330
105.8689
105.4048
104.9407
104.4766
104.0125
103.5484
103.0843
102.6203
102.1562
101.6921
101.2280
100.7639
100.2998
99.8357
99.3716
98.9075
98.4434
97.9793
97.5153
97.0512
96.5871
96.1230
95.6589
95.1948
94.7307
94.2666
93.8025
93.3384
92.8743
92.4102
91.9461
91.4821
91.0180
90.5539
90.0898
89.6257
89.1616
88.6975
88.2334
87.7693
87.3052
86.8411
86.3770
85.9129
85.4488
84.9848
84.5207
84.0566
83.5925
83.1284
82.6643
82.2002
81.7361
81.2720
80.8079
80.3438
79.8797
79.4156
78.9515
78.4875
78.0234
77.5593
77.0952
76.6311
76.1670
75.7029
75.2388
74.7747
74.3106
73.8465
73.3824
72.9183
72.4542
71.9901
71.5261
71.0620
70.5979
70.1338
69.6697
69.2056
68.7415
68.2774
67.8133
67.3492
66.8851
66.4210
65.9569
65.4928
65.0287
64.5646
64.1005
63.6364
63.1723
62.7082
62.2441
61.7800
61.3158
60.8517
60.3876
59.9235
59.4594
58.9953
58.5312
58.0670
57.6029
57.1388
56.6747
56.2105
55.7464
55.2823
54.8181
54.3540
53.8899
53.4257
52.9616
52.4975
52.0333
51.5692
51.1051
50.6409
50.1768
49.7127
49.2486
48.7845
48.3204
47.8563
47.3922
46.9282
46.4641
46.0001
45.5362
45.0722
44.6083
44.1444
43.6806
43.2168
42.7531
42.2894
41.8258
41.3623
40.8989
40.4356
39.9724
39.5093
39.0464
38.5836
38.1209
37.6585
37.1963
36.7343
36.2725
35.8110
35.3497
34.8888
34.4283
33.9681
33.5083
33.0489
32.5900
32.1316
31.6737
31.2165
30.7598
30.3039
29.8486
29.3941
28.9404
28.4877
28.0358
27.5850
27.1352
26.6865
26.2390
25.7928
25.3479
24.9044
24.4625
24.0220
23.5833
23.1463
22.7111
22.2778
21.8466
21.4174
20.9905
20.5659
20.1436
19.7239
19.3068
18.8924
18.4809
18.0723
17.6667
17.2644
16.8654
16.4698
16.0779
15.6900
15.3064
14.9276
14.5545
14.1885
13.8320
13.4890
13.1664
12.8761
12.6387
12.4894
137.7025
137.7025
137.7394
137.8275
137.9755
138.1822
138.4353
138.7140
138.9937
139.2517
139.4694
139.6347
139.7405
139.7848
139.7688
139.6961
139.5714
139.4000
139.1874
138.9388
138.6589
138.3521
138.0223
137.6727
137.3063
136.9255
136.5326
136.1293
135.7171
135.2974
134.8713
134.4398
134.0036
133.5635
133.1200
132.6736
132.2247
131.7737
131.3209
130.8666
130.4109
129.9541
129.4962
129.0376
128.5782
128.1182
127.6576
127.1966
126.7351
126.2733
125.8112
125.3489
124.8863
124.4235
123.9606
123.4975
123.0343
122.5710
122.1075
121.6440
121.1804
120.7168
120.2531
119.7893
119.3255
118.8617
118.3978
117.9339
117.4700
117.0061
116.5421
116.0781
115.6141
115.1501
114.6861
114.2221
113.7581
113.2940
112.8300
112.3659
111.9019
111.4378
110.9737
110.5097
110.0456
109.5815
109.1174
108.6534
108.1893
107.7252
107.2611
106.7970
106.3330
105.8689
105.4048
104.9407
104.4766
104.0125
103.5484
103.0843
102.6203
102.1562
101.6921
101.2280
100.7639
100.2998
99.8357
99.3716
98.9075
98.4434
97.9793
97.5153
97.0512
96.5871
96.1230
95.6589
95.1948
94.7307
94.2666
93.8025
93.3384
92.8743
92.4102
91.9461
91.4821
91.0180
90.5539
90.0898
89.6257
89.1616
88.6975
88.2334
87.7693
87.3052
86.8411
86.3770
85.9129
85.4488
84.9848
84.5207
84.0566
83.5925
83.1284
82.6643
82.2002
81.7361
81.2720
80.8079
80.3438
79.8797
79.4156
78.9515
78.4875
78.0234
77.5593
77.0952
76.6311
76.1670
75.7029
75.2388
74.7747
74.3106
73.8465
73.3824
72.9183
72.4542
71.9901
71.5261
71.0620
70.5979
70.1338
69.6697
69.2056
68.7415
68.2774
67.8133
67.3492
66.8851
66.4210
65.9569
65.4928
65.0287
64.5646
64.1005
63.6364
63.1723
62.7082
62.2441
61.7800
61.3158
60.8517
60.3876
59.9235
59.4594
58.9953
58.5312
58.0670
57.6029
57.1388
56.6747
56.2105
55.7464
55.2823
54.8181
54.3540
53.8899
53.4257
52.9616
52.4975
52.0333
51.5692
51.1051
50.6409
50.1768
49.7127
49.2486
48.7845
48.3204
47.8563
47.3922
46.9282
46.4641
46.0001
45.5362
45.0722
44.6083
44.1444
43.6806
43.2168
42.7531
42.2894
41.8258
41.3623
40.8989
40.4356
39.9724
39.5093
39.0464
38.5836
38.1209
37.6585
37.1963
36.7343
36.2725
35.8110
35.3497
34.8888
34.4283
33.9681
33.5083
33.0489
32.5900
32.1316
31.6737
31.2165
30.7598
30.3039
29.8486
29.3941
28.9404
28.4877
28.0358
27.5850
27.1352
26.6865
26.2390
25.7928
25.3479
24.9044
24.4625
24.0220
23.5833
23.1463
22.7111
22.2778
21.8466
21.4174
20.9905
20.5659
20.1436
19.7239
19.3068
18.8924
18.4809
18.0723
17.6667
17.2644
16.8654
16.4698
16.0779
15.6900
15.3064
14.9276
14.5545
14.1885
13.8320
13.4890
13.1664
12.8761
12.6387
12.4894
137.9938
137.9938
138.0425
138.1581
138.3495
138.6101
138.9170
139.2380
139.5415
139.8023
140.0042
140.1390
140.2050
140.2045
140.1424
140.0248
139.8580
139.6482
139.4013
139.1224
138.8161
138.4865
138.1369
137.7705
137.3897
136.9967
136.5933
136.1810
135.7613
135.3352
134.9037
134.4675
134.0273
133.5838
133.1374
132.6886
132.2376
131.7848
131.3305
130.8748
130.4180
129.9602
129.5015
129.0421
128.5821
128.1216
127.6606
127.1991
126.7373
126.2753
125.8129
125.3504
124.8876
124.4246
123.9616
123.4983
123.0350
122.5716
122.1081
121.6445
121.1808
120.7171
120.2534
119.7896
119.3258
118.8619
118.3980
117.9341
117.4701
117.0062
116.5422
116.0782
115.6142
115.1502
114.6862
114.2221
113.7581
113.2941
112.8300
112.3660
111.9019
111.4378
110.9738
110.5097
110.0456
109.5815
109.1175
108.6534
108.1893
107.7252
107.2611
106.7971
106.3330
105.8689
105.4048
104.9407
104.4766
104.0125
103.5484
103.0843
102.6203
102.1562
101.6921
101.2280
100.7639
100.2998
99.8357
99.3716
98.9075
98.4434
97.9793
97.5153
97.0512
96.5871
96.1230
95.6589
95.1948
94.7307
94.2666
93.8025
93.3384
92.8743
92.4102
91.9461
91.4821
91.0180
90.5539
90.0898
89.6257
89.1616
88.6975
88.2334
87.7693
87.3052
86.8411
86.3770
85.9129
85.4488
84.9848
84.5207
84.0566
83.5925
83.1284
82.6643
82.2002
81.7361
81.2720
80.8079
80.3438
79.8797
79.4156
78.9515
78.4875
78.0234
77.5593
77.0952
76.6311
76.1670
75.7029
75.2388
74.7747
74.3106
73.8465
73.3824
72.9183
72.4542
71.9901
71.5261
71.0620
70.5979
70.1338
69.6697
69.2056
68.7415
68.2774
67.8133
67.3492
66.8851
66.4210
65.9569
65.4928
65.0287
64.5646
64.1005
63.6364
63.1723
62.7082
62.2441
61.7800
61.3158
60.8517
60.3876
59.9235
59.4594
58.9953
58.5312
58.0670
57.6029
57.1388
56.6747
56.2105
55.7464
55.2823
54.8181
54.3540
53.8899
53.4257
52.9616
52.4975
52.0333
51.5692
51.1051
50.6409
50.1768
49.7127
49.2486
48.7845
48.3204
47.8563
47.3922
46.9282
46.4641
46.0001
45.5362
45.0722
44.6083
44.1444
43.6806
43.2168
42.7531
42.2894
41.8258
41.3623
40.8989
40.4356
39.9724
39.5093
39.0464
38.5836
38.1209
37.6585
37.1963
36.7343
36.2725
35.8110
35.3497
34.8888
34.4283
33.9681
33.5083
33.0489
32.5900
32.1316
31.6737
31.2165
30.7598
30.3039
29.8486
29.3941
28.9404
28.4877
28.0358
27.5850
27.1352
26.6865
26.2390
25.7928
25.3479
24.9044
24.4625
24.0220
23.5833
23.1463
22.7111
22.2778
21.8466
21.4174
20.9905
20.5659
20.1436
19.7239
19.3068
18.8924
18.4809
18.0723
17.6667
17.2644
16.8654
16.4698
16.0779
15.6900
15.3064
14.9276
14.5545
14.1885
13.8320
13.4890
13.1664
12.8761
12.6387
12.4894
138.7703
138.7703
138.8558
139.0566
139.3823
139.8068
140.2702
140.7054
141.0621
141.3140
141.4550
141.4924
141.4392
141.3105
141.1201
140.8802
140.6005
140.2890
139.9519
139.5941
139.2193
138.8307
138.4306
138.0209
137.6032
137.1787
136.7486
136.3136
135.8746
135.4320
134.9865
134.5384
134.0881
133.6360
133.1822
132.7270
132.2707
131.8133
131.3550
130.8959
130.4362
129.9759
129.5151
129.0539
128.5923
128.1304
127.6682
127.2057
126.7431
126.2803
125.8173
125.3541
124.8909
124.4275
123.9640
123.5005
123.0369
122.5732
122.1095
121.6457
121.1819
120.7181
120.2542
119.7903
119.3264
118.8624
118.3985
117.9345
117.4705
117.0065
116.5425
116.0785
115.6144
115.1504
114.6863
114.2223
113.7582
113.2942
112.8301
112.3660
111.9020
111.4379
110.9738
110.5097
110.0457
109.5816
109.1175
108.6534
108.1893
107.7252
107.2612
106.7971
106.3330
105.8689
105.4048
104.9407
104.4766
104.0125
103.5484
103.0844
102.6203
102.1562
101.6921
101.2280
100.7639
100.2998
99.8357
99.3716
98.9075
98.4434
97.9793
97.5153
97.0512
96.5871
96.1230
95.6589
95.1948
94.7307
94.2666
93.8025
93.3384
92.8743
92.4102
91.9461
91.4821
91.0180
90.5539
90.0898
89.6257
89.1616
88.6975
88.2334
87.7693
87.3052
86.8411
86.3770
85.9129
85.4488
84.9848
84.5207
84.0566
83.5925
83.1284
82.6643
82.2002
81.7361
81.2720
80.8079
80.3438
79.8797
79.4156
78.9515
78.4875
78.0234
77.5593
77.0952
76.6311
76.1670
75.7029
75.2388
74.7747
74.3106
73.8465
73.3824
72.9183
72.4542
71.9901
71.5261
71.0620
70.5979
70.1338
69.6697
69.2056
68.7415
68.2774
67.8133
67.3492
66.8851
66.4210
65.9569
65.4928
65.0287
64.5646
64.1005
63.6364
63.1723
62.7082
62.2441
61.7800
61.3158
60.8517
60.3876
59.9235
59.4594
58.9953
58.5312
58.0670
57.6029
57.1388
56.6747
56.2105
55.7464
55.2823
54.8181
54.3540
53.8899
53.4257
52.9616
52.4975
52.0333
51.5692
51.1051
50.6409
50.1768
49.7127
49.2486
48.7845
48.3204
47.8563
47.3922
46.9282
46.4641
46.0001
45.5362
45.0722
44.6083
44.1444
43.6806
43.2168
42.7531
42.2894
41.8258
41.3623
40.8989
40.4356
39.9724
39.5093
39.0464
38.5836
38.1209
37.6585
37.1963
36.7343
36.2725
35.8110
35.3497
34.8888
34.4283
33.9681
33.5083
33.0489
32.5900
32.1316
31.6737
31.2165
30.7598
30.3039
29.8486
29.3941
28.9404
28.4877
28.0358
27.5850
27.1352
26.6865
26.2390
25.7928
25.3479
24.9044
24.4625
24.0220
23.5833
23.1463
22.7111
22.2778
21.8466
21.4174
20.9905
20.5659
20.1436
19.7239
19.3068
18.8924
18.4809
18.0723
17.6667
17.2644
16.8654
16.4698
16.0779
15.6900
15.3064
14.9276
14.5545
14.1885
13.8320
13.4890
13.1664
12.8761
12.6387
12.4894
140.3388
140.3388
140.5172
140.9357
141.6048
142.4393
143.2642
143.9249
144.3432
144.5114
144.4633
144.2477
143.9124
143.4973
143.0322
142.5385
142.0302
141.5163
141.0024
140.4914
139.9848
139.4832
138.9867
138.4948
138.0072
137.5233
137.0426
136.5647
136.0891
135.6155
135.1436
134.6730
134.2035
133.7350
133.2673
132.8002
132.3336
131.8675
131.4017
130.9362
130.4710
130.0060
129.5411
129.0764
128.6118
128.1472
127.6828
127.2184
126.7541
126.2898
125.8256
125.3613
124.8971
124.4330
123.9688
123.5046
123.0405
122.5764
122.1123
121.6481
121.1840
120.7199
120.2558
119.7917
119.3276
118.8635
118.3994
117.9353
117.4712
117.0071
116.5430
116.0790
115.6149
115.1508
114.6867
114.2226
113.7585
113.2944
112.8303
112.3662
111.9021
111.4380
110.9739
110.5098
110.0458
109.5817
109.1176
108.6535
108.1894
107.7253
107.2612
106.7971
106.3330
105.8689
105.4048
104.9407
104.4766
104.0126
103.5485
103.0844
102.6203
102.1562
101.6921
101.2280
100.7639
100.2998
99.8357
99.3716
98.9075
98.4434
97.9793
97.5153
97.0512
96.5871
96.1230
95.6589
95.1948
94.7307
94.2666
93.8025
93.3384
92.8743
92.4102
91.9461
91.4821
91.0180
90.5539
90.0898
89.6257
89.1616
88.6975
88.2334
87.7693
87.3052
86.8411
86.3770
85.9129
85.4488
84.9848
84.5207
84.0566
83.5925
83.1284
82.6643
82.2002
81.7361
81.2720
80.8079
80.3438
79.8797
79.4156
78.9515
78.4875
78.0234
77.5593
77.0952
76.6311
76.1670
75.7029
75.2388
74.7747
74.3106
73.8465
73.3824
72.9183
72.4542
71.9901
71.5261
71.0620
70.5979
70.1338
69.6697
69.2056
68.7415
68.2774
67.8133
67.3492
66.8851
66.4210
65.9569
65.4928
65.0287
64.5646
64.1005
63.6364
63.1723
62.7082
62.2441
61.7800
61.3158
60.8517
60.3876
59.9235
59.4594
58.9953
58.5312
58.0670
57.6029
57.1388
56.6747
56.2105
55.7464
55.2823
54.8181
54.3540
53.8899
53.4257
52.9616
52.4975
52.0333
51.5692
51.1051
50.6409
50.1768
49.7127
49.2486
48.7845
48.3204
47.8563
47.3922
46.9282
46.4641
46.0001
45.5362
45.0722
44.6083
44.1444
43.6806
43.2168
42.7531
42.2894
41.8258
41.3623
40.8989
40.4356
39.9724
39.5093
39.0464
38.5836
38.1209
37.6585
37.1963
36.7343
36.2725
35.8110
35.3497
34.8888
34.4283
33.9681
33.5083
33.0489
32.5900
32.1316
31.6737
31.2165
30.7598
30.3039
29.8486
29.3941
28.9404
28.4877
28.0358
27.5850
27.1352
26.6865
26.2390
25.7928
25.3479
24.9044
24.4625
24.0220
23.5833
23.1463
22.7111
22.2778
21.8466
21.4174
20.9905
20.5659
20.1436
19.7239
19.3068
18.8924
18.4809
18.0723
17.6667
17.2644
16.8654
16.4698
16.0779
15.6900
15.3064
14.9276
14.5545
14.1885
13.8320
13.4890
13.1664
12.8761
12.6387
12.4894
143.1661
143.1661
143.5675
144.5169
146.0350
147.8609
149.4510
150.4586
150.8184
150.6333
150.0605
149.2467
148.3054
147.3148
146.3245
145.3630
144.4451
143.5765
142.7575
141.9856
141.2565
140.5657
139.9083
139.2799
138.6764
138.0942
137.5300
136.9812
136.4453
135.9204
135.4048
134.8970
134.3958
133.9002
133.4093
132.9224
132.4389
131.9582
131.4800
131.0038
130.5294
130.0564
129.5848
129.1142
128.6445
128.1756
127.7074
127.2398
126.7727
126.3060
125.8396
125.3735
124.9078
124.4422
123.9769
123.5117
123.0466
122.5817
122.1169
121.6522
121.1876
120.7230
120.2585
119.7941
119.3297
118.8653
118.4010
117.9367
117.4725
117.0082
116.5440
116.0798
115.6156
115.1514
114.6872
114.2231
113.7589
113.2948
112.8306
112.3665
111.9024
111.4383
110.9741
110.5100
110.0459
109.5818
109.1177
108.6536
108.1895
107.7254
107.2613
106.7972
106.3331
105.8690
105.4049
104.9408
104.4767
104.0126
103.5485
103.0844
102.6203
102.1562
101.6921
101.2280
100.7639
100.2998
99.8357
99.3716
98.9075
98.4434
97.9794
97.5153
97.0512
96.5871
96.1230
95.6589
95.1948
94.7307
94.2666
93.8025
93.3384
92.8743
92.4102
91.9461
91.4821
91.0180
90.5539
90.0898
89.6257
89.1616
88.6975
88.2334
87.7693
87.3052
86.8411
86.3770
85.9129
85.4488
84.9848
84.5207
84.0566
83.5925
83.1284
82.6643
82.2002
81.7361
81.2720
80.8079
80.3438
79.8797
79.4156
78.9515
78.4875
78.0234
77.5593
77.0952
76.6311
76.1670
75.7029
75.2388
74.7747
74.3106
73.8465
73.3824
72.9183
72.4542
71.9901
71.5261
71.0620
70.5979
70.1338
69.6697
69.2056
68.7415
68.2774
67.8133
67.3492
66.8851
66.4210
65.9569
65.4928
65.0287
64.5646
64.1005
63.6364
63.1723
62.7082
62.2441
61.7800
61.3158
60.8517
60.3876
59.9235
59.4594
58.9953
58.5312
58.0670
57.6029
57.1388
56.6747
56.2105
55.7464
55.2823
54.8181
54.3540
53.8899
53.4257
52.9616
52.4975
52.0333
51.5692
51.1051
50.6409
50.1768
49.7127
49.2486
48.7845
48.3204
47.8563
47.3922
46.9282
46.4641
46.0001
45.5362
45.0722
44.6083
44.1444
43.6806
43.2168
42.7531
42.2894
41.8258
41.3623
40.8989
40.4356
39.9724
39.5093
39.0464
38.5836
38.1209
37.6585
37.1963
36.7343
36.2725
35.8110
35.3497
34.8888
34.4283
33.9681
33.5083
33.0489
32.5900
32.1316
31.6737
31.2165
30.7598
30.3039
29.8486
29.3941
28.9404
28.4877
28.0358
27.5850
27.1352
26.6865
26.2390
25.7928
25.3479
24.9044
24.4625
24.0220
23.5833
23.1463
22.7111
22.2778
21.8466
21.4174
20.9905
20.5659
20.1436
19.7239
19.3068
18.8924
18.4809
18.0723
17.6667
17.2644
16.8654
16.4698
16.0779
15.6900
15.3064
14.9276
14.5545
14.1885
13.8320
13.4890
13.1664
12.8761
12.6387
12.4894
147.9195
147.9195
148.8388
151.0612
154.6918
158.9710
162.0475
163.3010
162.9995
161.6692
159.7796
157.6609
155.5165
153.4593
151.5437
149.7896
148.1975
146.7577
145.4557
144.2757
143.2019
142.2197
141.3160
140.4792
139.6991
138.9672
138.2761
137.6193
136.9917
136.3887
135.8065
135.2419
134.6922
134.1552
133.6288
133.1115
132.6020
132.0990
131.6015
131.1089
130.6202
130.1351
129.6529
129.1732
128.6957
128.2201
127.7460
127.2733
126.8018
126.3313
125.8616
125.3927
124.9245
124.4568
123.9896
123.5228
123.0563
122.5902
122.1243
121.6587
121.1932
120.7280
120.2628
119.7979
119.3330
118.8682
118.4036
117.9389
117.4744
117.0099
116.5455
116.0811
115.6167
115.1524
114.6881
114.2238
113.7596
113.2954
112.8312
112.3670
111.9028
111.4386
110.9745
110.5103
110.0462
109.5820
109.1179
108.6537
108.1896
107.7255
107.2614
106.7973
106.3332
105.8690
105.4049
104.9408
104.4767
104.0126
103.5485
103.0844
102.6203
102.1562
101.6921
101.2280
100.7639
100.2998
99.8357
99.3716
98.9076
98.4435
97.9794
97.5153
97.0512
96.5871
96.1230
95.6589
95.1948
94.7307
94.2666
93.8025
93.3384
92.8743
92.4102
91.9461
91.4821
91.0180
90.5539
90.0898
89.6257
89.1616
88.6975
88.2334
87.7693
87.3052
86.8411
86.3770
85.9129
85.4488
84.9848
84.5207
84.0566
83.5925
83.1284
82.6643
82.2002
81.7361
81.2720
80.8079
80.3438
79.8797
79.4156
78.9515
78.4875
78.0234
77.5593
77.0952
76.6311
76.1670
75.7029
75.2388
74.7747
74.3106
73.8465
73.3824
72.9183
72.4542
71.9901
71.5261
71.0620
70.5979
70.1338
69.6697
69.2056
68.7415
68.2774
67.8133
67.3492
66.8851
66.4210
65.9569
65.4928
65.0287
64.5646
64.1005
63.6364
63.1723
62.7082
62.2441
61.7800
61.3158
60.8517
60.3876
59.9235
59.4594
58.9953
58.5312
58.0670
57.6029
57.1388
56.6747
56.2105
55.7464
55.2823
54.8181
54.3540
53.8899
53.4257
52.9616
52.4975
52.0333
51.5692
51.1051
50.6409
50.1768
49.7127
49.2486
48.7845
48.3204
47.8563
47.3922
46.9282
46.4641
46.0001
45.5362
45.0722
44.6083
44.1444
43.6806
43.2168
42.7531
42.2894
41.8258
41.3623
40.8989
40.4356
39.9724
39.5093
39.0464
38.5836
38.1209
37.6585
37.1963
36.7343
36.2725
35.8110
35.3497
34.8888
34.4283
33.9681
33.5083
33.0489
32.5900
32.1316
31.6737
31.2165
30.7598
30.3039
29.8486
29.3941
28.9404
28.4877
28.0358
27.5850
27.1352
26.6865
26.2390
25.7928
25.3479
24.9044
24.4625
24.0220
23.5833
23.1463
22.7111
22.2778
21.8466
21.4174
20.9905
20.5659
20.1436
19.7239
19.3068
18.8924
18.4809
18.0723
17.6667
17.2644
16.8654
16.4698
16.0779
15.6900
15.3064
14.9276
14.5545
14.1885
13.8320
13.4890
13.1664
12.8761
12.6387
12.4894
155.4427
155.4427
157.5127
162.7246
171.7167
182.4941
187.8774
187.9936
184.9379
180.4554
175.5923
170.8804
166.5515
162.6803
159.2654
156.2722
153.6535
151.3606
149.3474
147.5726
146.0001
144.5985
143.3414
142.2061
141.1735
140.2275
139.3546
138.5433
137.7841
137.0690
136.3911
135.7447
135.1251
134.5281
133.9504
133.3891
132.8417
132.3061
131.7807
131.2640
130.7546
130.2515
129.7539
129.2608
128.7718
128.2862
127.8035
127.3233
126.8453
126.3691
125.8946
125.4215
124.9495
124.4786
124.0086
123.5394
123.0709
122.6029
122.1354
121.6684
121.2017
120.7354
120.2694
119.8036
119.3380
118.8726
118.4074
117.9423
117.4773
117.0125
116.5477
116.0831
115.6185
115.1539
114.6895
114.2250
113.7606
113.2963
112.8320
112.3677
111.9034
111.4392
110.9749
110.5107
110.0465
109.5823
109.1182
108.6540
108.1898
107.7257
107.2616
106.7974
106.3333
105.8692
105.4050
104.9409
104.4768
104.0127
103.5486
103.0845
102.6204
102.1563
101.6922
101.2281
100.7640
100.2999
99.8358
99.3717
98.9076
98.4435
97.9794
97.5153
97.0512
96.5871
96.1230
95.6589
95.1948
94.7307
94.2666
93.8025
93.3384
92.8743
92.4102
91.9462
91.4821
91.0180
90.5539
90.0898
89.6257
89.1616
88.6975
88.2334
87.7693
87.3052
86.8411
86.3770
85.9129
85.4488
84.9848
84.5207
84.0566
83.5925
83.1284
82.6643
82.2002
81.7361
81.2720
80.8079
80.3438
79.8797
79.4156
78.9515
78.4875
78.0234
77.5593
77.0952
76.6311
76.1670
75.7029
75.2388
74.7747
74.3106
73.8465
73.3824
72.9183
72.4542
71.9901
71.5261
71.0620
70.5979
70.1338
69.6697
69.2056
68.7415
68.2774
67.8133
67.3492
66.8851
66.4210
65.9569
65.4928
65.0287
64.5646
64.1005
63.6364
63.1723
62.7082
62.2441
61.7800
61.3158
60.8517
60.3876
59.9235
59.4594
58.9953
58.5312
58.0670
57.6029
57.1388
56.6747
56.2105
55.7464
55.2823
54.8181
54.3540
53.8899
53.4257
52.9616
52.4975
52.0333
51.5692
51.1051
50.6409
50.1768
49.7127
49.2486
48.7845
48.3204
47.8563
47.3922
46.9282
46.4641
46.0001
45.5362
45.0722
44.6083
44.1444
43.6806
43.2168
42.7531
42.2894
41.8258
41.3623
40.8989
40.4356
39.9724
39.5093
39.0464
38.5836
38.1209
37.6585
37.1963
36.7343
36.2725
35.8110
35.3497
34.8888
34.4283
33.9681
33.5083
33.0489
32.5900
32.1316
31.6737
31.2165
30.7598
30.3039
29.8486
29.3941
28.9404
28.4877
28.0358
27.5850
27.1352
26.6865
26.2390
25.7928
25.3479
24.9044
24.4625
24.0220
23.5833
23.1463
22.7111
22.2778
21.8466
21.4174
20.9905
20.5659
20.1436