# vtk DataFile Version 5.0
Example 3D regular grid VTK file.
ASCII
DATASET UNSTRUCTURED_GRID
POINTS 90601 float
0 0 0
0 10 0
0 20 0
0 30 0
0 40 0
0 50 0
0 60 0
0 70 0
0 80 0
0 90 0
0 100 0
0 110 0
0 120 0
0 130 0
0 140 0
0 150 0
0 160 0
0 170 0
0 180 0
0 190 0
0 200 0
0 210 0
0 220 0
0 230 0
0 240 0
0 250 0
0 260 0
0 270 0
0 280 0
0 290 0
0 300 0
0 310 0
0 320 0
0 330 0
0 340 0
0 350 0
0 360 0
0 370 0
0 380 0
0 390 0
0 400 0
0 410 0
0 420 0
0 430 0
0 440 0
0 450 0
0 460 0
0 470 0
0 480 0
0 490 0
0 500 0
0 510 0
0 520 0
0 530 0
0 540 0
0 550 0
0 560 0
0 570 0
0 580 0
0 590 0
0 600 0
0 610 0
0 620 0
0 630 0
0 640 0
0 650 0
0 660 0
0 670 0
0 680 0
0 690 0
0 700 0
0 710 0
0 720 0
0 730 0
0 740 0
0 750 0
0 760 0
0 770 0
0 780 0
0 790 0
0 800 0
0 810 0
0 820 0
0 830 0
0 840 0
0 850 0
0 860 0
0 870 0
0 880 0
0 890 0
0 900 0
0 910 0
0 920 0
0 930 0
0 940 0
0 950 0
0 960 0
0 970 0
0 980 0
0 990 0
0 1000 0
0 1010 0
0 1020 0
0 1030 0
0 1040 0
0 1050 0
0 1060 0
0 1070 0
0 1080 0
0 1090 0
0 1100 0
0 1110 0
0 1120 0
0 1130 0
0 1140 0
0 1150 0
0 1160 0
0 1170 0
0 1180 0
0 1190 0
0 1200 0
0 1210 0
0 1220 0
0 1230 0
0 1240 0
0 1250 0
0 1260 0
0 1270 0
0 1280 0
0 1290 0
0 1300 0
0 1310 0
0 1320 0
0 1330 0
0 1340 0
0 1350 0
0 1360 0
0 1370 0
0 1380 0
0 1390 0
0 1400 0
0 1410 0
0 1420 0
0 1430 0
0 1440 0
0 1450 0
0 1460 0
0 1470 0
0 1480 0
0 1490 0
0 1500 0
0 1510 0
0 1520 0
0 1530 0
0 1540 0
0 1550 0
0 1560 0
0 1570 0
0 1580 0
0 1590 0
0 1600 0
0 1610 0
0 1620 0
0 1630 0
0 1640 0
0 1650 0
0 1660 0
0 1670 0
0 1680 0
0 1690 0
0 1700 0
0 1710 0
0 1720 0
0 1730 0
0 1740 0
0 1750 0
0 1760 0
0 1770 0
0 1780 0
0 1790 0
0 1800 0
0 1810 0
0 1820 0
0 1830 0
0 1840 0
0 1850 0
0 1860 0
0 1870 0
0 1880 0
0 1890 0
0 1900 0
0 1910 0
0 1920 0
0 1930 0
0 1940 0
0 1950 0
0 1960 0
0 1970 0
0 1980 0
0 1990 0
0 2000 0
0 2010 0
0 2020 0
0 2030 0
0 2040 0
0 2050 0
0 2060 0
0 2070 0
0 2080 0
0 2090 0
0 2100 0
0 2110 0
0 2120 0
0 2130 0
0 2140 0
0 2150 0
0 2160 0
0 2170 0
0 2180 0
0 2190 0
0 2200 0
0 2210 0
0 2220 0
0 2230 0
0 2240 0
0 2250 0
0 2260 0
0 2270 0
0 2280 0
0 2290 0
0 2300 0
0 2310 0
0 2320 0
0 2330 0
0 2340 0
0 2350 0
0 2360 0
0 2370 0
0 2380 0
0 2390 0
0 2400 0
0 2410 0
0 2420 0
0 2430 0
0 2440 0
0 2450 0
0 2460 0
0 2470 0
0 2480 0
0 2490 0
0 2500 0
0 2510 0
0 2520 0
0 2530 0
0 2540 0
0 2550 0
0 2560 0
0 2570 0
0 2580 0
0 2590 0
0 2600 0
0 2610 0
0 2620 0
0 2630 0
0 2640 0
0 2650 0
0 2660 0
0 2670 0
0 2680 0
0 2690 0
0 2700 0
0 2710 0
0 2720 0
0 2730 0
0 2740 0
0 2750 0
0 2760 0
0 2770 0
0 2780 0
0 2790 0
0 2800 0
0 2810 0
0 2820 0
0 2830 0
0 2840 0
0 2850 0
0 2860 0
0 2870 0
0 2880 0
0 2890 0
0 2900 0
0 2910 0
0 2920 0
0 2930 0
0 2940 0
0 2950 0
0 2960 0
0 2970 0
0 2980 0
0 2990 0
0 3000 0
10 0 0
10 10 0
10 20 0
10 30 0
10 40 0
10 50 0
10 60 0
10 70 0
10 80 0
10 90 0
10 100 0
10 110 0
10 120 0
10 130 0
10 140 0
10 150 0
10 160 0
10 170 0
10 180 0
10 190 0
10 200 0
10 210 0
10 220 0
10 230 0
10 240 0
10 250 0
10 260 0
10 270 0
10 280 0
10 290 0
10 300 0
10 310 0
10 320 0
10 330 0
10 340 0
10 350 0
10 360 0
10 370 0
10 380 0
10 390 0
10 400 0
10 410 0
10 420 0
10 430 0
10 440 0
10 450 0
10 460 0
10 470 0
10 480 0
10 490 0
10 500 0
10 510 0
10 520 0
10 530 0
10 540 0
10 550 0
10 560 0
10 570 0
10 580 0
10 590 0
10 600 0
10 610 0
10 620 0
10 630 0
10 640 0
10 650 0
10 660 0
10 670 0
10 680 0
10 690 0
10 700 0
10 710 0
10 720 0
10 730 0
10 740 0
10 750 0
10 760 0
10 770 0
10 780 0
10 790 0
10 800 0
10 810 0
10 820 0
10 830 0
10 840 0
10 850 0
10 860 0
10 870 0
10 880 0
10 890 0
10 900 0
10 910 0
10 920 0
10 930 0
10 940 0
10 950 0
10 960 0
10 970 0
10 980 0
10 990 0
10 1000 0
10 1010 0
10 1020 0
10 1030 0
10 1040 0
10 1050 0
10 1060 0
10 1070 0
10 1080 0
10 1090 0
10 1100 0
10 1110 0
10 1120 0
10 1130 0
10 1140 0
10 1150 0
10 1160 0
10 1170 0
10 1180 0
10 1190 0
10 1200 0
10 1210 0
10 1220 0
10 1230 0
10 1240 0
10 1250 0
10 1260 0
10 1270 0
10 1280 0
10 1290 0
10 1300 0
10 1310 0
10 1320 0
10 1330 0
10 1340 0
10 1350 0
10 1360 0
10 1370 0
10 1380 0
10 1390 0
10 1400 0
10 1410 0
10 1420 0
10 1430 0
10 1440 0
10 1450 0
10 1460 0
10 1470 0
10 1480 0
10 1490 0
10 1500 0
10 1510 0
10 1520 0
10 1530 0
10 1540 0
10 1550 0
10 1560 0
10 1570 0
10 1580 0
10 1590 0
10 1600 0
10 1610 0
10 1620 0
10 1630 0
10 1640 0
10 1650 0
10 1660 0
10 1670 0
10 1680 0
10 1690 0
10 1700 0
10 1710 0
10 1720 0
10 1730 0
10 1740 0
10 1750 0
10 1760 0
10 1770 0
10 1780 0
10 1790 0
10 1800 0
10 1810 0
10 1820 0
10 1830 0
10 1840 0
10 1850 0
10 1860 0
10 1870 0
10 1880 0
10 1890 0
10 1900 0
10 1910 0
10 1920 0
10 1930 0
10 1940 0
10 1950 0
10 1960 0
10 1970 0
10 1980 0
10 1990 0
10 2000 0
10 2010 0
10 2020 0
10 2030 0
10 2040 0
10 2050 0
10 2060 0
10 2070 0
10 2080 0
10 2090 0
10 2100 0
10 2110 0
10 2120 0
10 2130 0
10 2140 0
10 2150 0
10 2160 0
10 2170 0
10 2180 0
10 2190 0
10 2200 0
10 2210 0
10 2220 0
10 2230 0
10 2240 0
10 2250 0
10 2260 0
10 2270 0
10 2280 0
10 2290 0
10 2300 0
10 2310 0
10 2320 0
10 2330 0
10 2340 0
10 2350 0
10 2360 0
10 2370 0
10 2380 0
10 2390 0
10 2400 0
10 2410 0
10 2420 0
10 2430 0
10 2440 0
10 2450 0
10 2460 0
10 2470 0
10 2480 0
10 2490 0
10 2500 0
10 2510 0
10 2520 0
10 2530 0
10 2540 0
10 2550 0
10 2560 0
10 2570 0
10 2580 0
10 2590 0
10 2600 0
10 2610 0
10 2620 0
10 2630 0
10 2640 0
10 2650 0
10 2660 0
10 2670 0
10 2680 0
10 2690 0
10 2700 0
10 2710 0
10 2720 0
10 2730 0
10 2740 0
10 2750 0
10 2760 0
10 2770 0
10 2780 0
10 2790 0
10 2800 0
10 2810 0
10 2820 0
10 2830 0
10 2840 0
10 2850 0
10 2860 0
10 2870 0
10 2880 0
10 2890 0
10 2900 0
10 2910 0
10 2920 0
10 2930 0
10 2940 0
10 2950 0
10 2960 0
10 2970 0
10 2980 0
10 2990 0
10 3000 0
20 0 0
20 10 0
20 20 0
20 30 0
20 40 0
20 50 0
20 60 0
20 70 0
20 80 0
20 90 0
20 100 0
20 110 0
20 120 0
20 130 0
20 140 0
20 150 0
20 160 0
20 170 0
20 180 0
20 190 0
20 200 0
20 210 0
20 220 0
20 230 0
20 240 0
20 250 0
20 260 0
20 270 0
20 280 0
20 290 0
20 300 0
20 310 0
20 320 0
20 330 0
20 340 0
20 350 0
20 360 0
20 370 0
20 380 0
20 390 0
20 400 0
20 410 0
20 420 0
20 430 0
20 440 0
20 450 0
20 460 0
20 470 0
20 480 0
20 490 0
20 500 0
20 510 0
20 520 0
20 530 0
20 540 0
20 550 0
20 560 0
20 570 0
20 580 0
20 590 0
20 600 0
20 610 0
20 620 0
20 630 0
20 640 0
20 650 0
20 660 0
20 670 0
20 680 0
20 690 0
20 700 0
20 710 0
20 720 0
20 730 0
20 740 0
20 750 0
20 760 0
20 770 0
20 780 0
20 790 0
20 800 0
20 810 0
20 820 0
20 830 0
20 840 0
20 850 0
20 860 0
20 870 0
20 880 0
20 890 0
20 900 0
20 910 0
20 920 0
20 930 0
20 940 0
20 950 0
20 960 0
20 970 0
20 980 0
20 990 0
20 1000 0
20 1010 0
20 1020 0
20 1030 0
20 1040 0
20 1050 0
20 1060 0
20 1070 0
20 1080 0
20 1090 0
20 1100 0
20 1110 0
20 1120 0
20 1130 0
20 1140 0
20 1150 0
20 1160 0
20 1170 0
20 1180 0
20 1190 0
20 1200 0
20 1210 0
20 1220 0
20 1230 0
20 1240 0
20 1250 0
20 1260 0
20 1270 0
20 1280 0
20 1290 0
20 1300 0
20 1310 0
20 1320 0
20 1330 0
20 1340 0
20 1350 0
20 1360 0
20 1370 0
20 1380 0
20 1390 0
20 1400 0
20 1410 0
20 1420 0
20 1430 0
20 1440 0
20 1450 0
20 1460 0
20 1470 0
20 1480 0
20 1490 0
20 1500 0
20 1510 0
20 1520 0
20 1530 0
20 1540 0
20 1550 0
20 1560 0
20 1570 0
20 1580 0
20 1590 0
20 1600 0
20 1610 0
20 1620 0
20 1630 0
20 1640 0
20 1650 0
20 1660 0
20 1670 0
20 1680 0
20 1690 0
20 1700 0
20 1710 0
20 1720 0
20 1730 0
20 1740 0
20 1750 0
20 1760 0
20 1770 0
20 1780 0
20 1790 0
20 1800 0
20 1810 0
20 1820 0
20 1830 0
20 1840 0
20 1850 0
20 1860 0
20 1870 0
20 1880 0
20 1890 0
20 1900 0
20 1910 0
20 1920 0
20 1930 0
20 1940 0
20 1950 0
20 1960 0
20 1970 0
20 1980 0
20 1990 0
20 2000 0
20 2010 0
20 2020 0
20 2030 0
20 2040 0
20 2050 0
20 2060 0
20 2070 0
20 2080 0
20 2090 0
20 2100 0
20 2110 0
20 2120 0
20 2130 0
20 2140 0
20 2150 0
20 2160 0
20 2170 0
20 2180 0
20 2190 0
20 2200 0
20 2210 0
20 2220 0
20 2230 0
20 2240 0
20 2250 0
20 2260 0
20 2270 0
20 2280 0
20 2290 0
20 2300 0
20 2310 0
20 2320 0
20 2330 0
20 2340 0
20 2350 0
20 2360 0
20 2370 0
20 2380 0
20 2390 0
20 2400 0
20 2410 0
20 2420 0
20 2430 0
20 2440 0
20 2450 0
20 2460 0
20 2470 0
20 2480 0
20 2490 0
20 2500 0
20 2510 0
20 2520 0
20 2530 0
20 2540 0
20 2550 0
20 2560 0
20 2570 0
20 2580 0
20 2590 0
20 2600 0
20 2610 0
20 2620 0
20 2630 0
20 2640 0
20 2650 0
20 2660 0
20 2670 0
20 2680 0
20 2690 0
20 2700 0
20 2710 0
20 2720 0
20 2730 0
20 2740 0
20 2750 0
20 2760 0
20 2770 0
20 2780 0
20 2790 0
20 2800 0
20 2810 0
20 2820 0
20 2830 0
20 2840 0
20 2850 0
20 2860 0
20 2870 0
20 2880 0
20 2890 0
20 2900 0
20 2910 0
20 2920 0
20 2930 0
20 2940 0
20 2950 0
20 2960 0
20 2970 0
20 2980 0
20 2990 0
20 3000 0
30 0 0
30 10 0
30 20 0
30 30 0
30 40 0
30 50 0
30 60 0
30 70 0
30 80 0
30 90 0
30 100 0
30 110 0
30 120 0
30 130 0
30 140 0
30 150 0
30 160 0
30 170 0
30 180 0
30 190 0
30 200 0
30 210 0
30 220 0
30 230 0
30 240 0
30 250 0
30 260 0
30 270 0
30 280 0
30 290 0
30 300 0
30 310 0
30 320 0
30 330 0
30 340 0
30 350 0
30 360 0
30 370 0
30 380 0
30 390 0
30 400 0
30 410 0
30 420 0
30 430 0
30 440 0
30 450 0
30 460 0
30 470 0
30 480 0
30 490 0
30 500 0
30 510 0
30 520 0
30 530 0
30 540 0
30 550 0
30 560 0
30 570 0
30 580 0
30 590 0
30 600 0
30 610 0
30 620 0
30 630 0
30 640 0
30 650 0
30 660 0
30 670 0
30 680 0
30 690 0
30 700 0
30 710 0
30 720 0
30 730 0
30 740 0
30 750 0
30 760 0
30 770 0
30 780 0
30 790 0
30 800 0
30 810 0
30 820 0
30 830 0
30 840 0
30 850 0
30 860 0
30 870 0
30 880 0
30 890 0
30 900 0
30 910 0
30 920 0
30 930 0
30 940 0
30 950 0
30 960 0
30 970 0
30 980 0
30 990 0
30 1000 0
30 1010 0
30 1020 0
30 1030 0
30 1040 0
30 1050 0
30 1060 0
30 1070 0
30 1080 0
30 1090 0
30 1100 0
30 1110 0
30 1120 0
30 1130 0
30 1140 0
30 1150 0
30 1160 0
30 1170 0
30 1180 0
30 1190 0
30 1200 0
30 1210 0
30 1220 0
30 1230 0
30 1240 0
30 1250 0
30 1260 0
30 1270 0
30 1280 0
30 1290 0
30 1300 0
30 1310 0
30 1320 0
30 1330 0
30 1340 0
30 1350 0
30 1360 0
30 1370 0
30 1380 0
30 1390 0
30 1400 0
30 1410 0
30 1420 0
30 1430 0
30 1440 0
30 1450 0
30 1460 0
30 1470 0
30 1480 0
30 1490 0
30 1500 0
30 1510 0
30 1520 0
30 1530 0
30 1540 0
30 1550 0
30 1560 0
30 1570 0
30 1580 0
30 1590 0
[...]
POINT_DATA 90601
SCALARS P float
LOOKUP_TABLE default
142.4138
142.4138
142.4507
142.5388
142.6868
142.8935
143.1466
143.4253
143.7050
143.9630
144.1808
144.3460
144.4518
144.4961
144.4801
144.4074
144.2827
144.1113
143.8987
143.6501
143.3702
143.0634
142.7336
142.3840
142.0176
141.6368
141.2439
140.8406
140.4284
140.0087
139.5826
139.1511
138.7149
138.2748
137.8313
137.3849
136.9360
136.4850
136.0322
135.5779
135.1222
134.6654
134.2075
133.7489
133.2895
132.8295
132.3689
131.9079
131.4464
130.9846
130.5226
130.0602
129.5976
129.1348
128.6719
128.2088
127.7456
127.2823
126.8188
126.3553
125.8917
125.4281
124.9644
124.5006
124.0368
123.5730
123.1091
122.6452
122.1813
121.7174
121.2534
120.7894
120.3254
119.8614
119.3974
118.9334
118.4694
118.0053
117.5413
117.0772
116.6132
116.1491
115.6850
115.2210
114.7569
114.2928
113.8288
113.3647
112.9006
112.4365
111.9724
111.5084
111.0443
110.5802
110.1161
109.6520
109.1879
108.7238
108.2597
107.7957
107.3316
106.8675
106.4034
105.9393
105.4752
105.0111
104.5470
104.0829
103.6188
103.1547
102.6906
102.2266
101.7625
101.2984
100.8343
100.3702
99.9061
99.4420
98.9779
98.5138
98.0497
97.5856
97.1215
96.6575
96.1934
95.7293
95.2652
94.8011
94.3370
93.8729
93.4088
92.9447
92.4806
92.0165
91.5524
91.0883
90.6242
90.1602
89.6961
89.2320
88.7679
88.3038
87.8397
87.3756
86.9115
86.4474
85.9833
85.5192
85.0551
84.5910
84.1269
83.6629
83.1988
82.7347
82.2706
81.8065
81.3424
80.8783
80.4142
79.9501
79.4860
79.0219
78.5578
78.0937
77.6296
77.1656
76.7015
76.2374
75.7733
75.3092
74.8451
74.3810
73.9169
73.4528
72.9887
72.5246
72.0605
71.5964
71.1323
70.6682
70.2041
69.7400
69.2759
68.8119
68.3478
67.8837
67.4196
66.9555
66.4914
66.0273
65.5632
65.0991
64.6350
64.1708
63.7067
63.2426
62.7785
62.3144
61.8503
61.3862
60.9221
60.4580
59.9939
59.5297
59.0656
58.6015
58.1374
57.6733
57.2091
56.7450
56.2809
55.8168
55.3526
54.8885
54.4244
53.9603
53.4961
53.0320
52.5679
52.1038
51.6396
51.1755
50.7114
50.2473
49.7832
49.3192
48.8551
48.3910
47.9270
47.4630
46.9990
46.5350
46.0711
45.6072
45.1433
44.6795
44.2157
43.7520
43.2883
42.8247
42.3612
41.8978
41.4344
40.9712
40.5081
40.0451
39.5823
39.1196
38.6571
38.1948
37.7327
37.2708
36.8091
36.3477
35.8866
35.4259
34.9654
34.5054
34.0457
33.5865
33.1277
32.6694
32.2117
31.7545
31.2980
30.8421
30.3870
29.9325
29.4789
29.0262
28.5744
28.1235
27.6737
27.2250
26.7774
26.3311
25.8861
25.4424
25.0002
24.5596
24.1205
23.6831
23.2475
22.8138
22.3820
21.9523
21.5247
21.0995
20.6767
20.2566
19.8394
19.4255
19.0155
18.6104
18.2117
17.8222
17.4465
17.0922
16.7727
16.5109
16.3461
142.4138
142.4138
142.4507
142.5388
142.6868
142.8935
143.1466
143.4253
143.7050
143.9630
144.1808
144.3460
144.4518
144.4961
144.4801
144.4074
144.2827
144.1113
143.8987
143.6501
143.3702
143.0634
142.7336
142.3840
142.0176
141.6368
141.2439
140.8406
140.4284
140.0087
139.5826
139.1511
138.7149
138.2748
137.8313
137.3849
136.9360
136.4850
136.0322
135.5779
135.1222
134.6654
134.2075
133.7489
133.2895
132.8295
132.3689
131.9079
131.4464
130.9846
130.5226
130.0602
129.5976
129.1348
128.6719
128.2088
127.7456
127.2823
126.8188
126.3553
125.8917
125.4281
124.9644
124.5006
124.0368
123.5730
123.1091
122.6452
122.1813
121.7174
121.2534
120.7894
120.3254
119.8614
119.3974
118.9334
118.4694
118.0053
117.5413
117.0772
116.6132
116.1491
115.6850
115.2210
114.7569
114.2928
113.8288
113.3647
112.9006
112.4365
111.9724
111.5084
111.0443
110.5802
110.1161
109.6520
109.1879
108.7238
108.2597
107.7957
107.3316
106.8675
106.4034
105.9393
105.4752
105.0111
104.5470
104.0829
103.6188
103.1547
102.6906
102.2266
101.7625
101.2984
100.8343
100.3702
99.9061
99.4420
98.9779
98.5138
98.0497
97.5856
97.1215
96.6575
96.1934
95.7293
95.2652
94.8011
94.3370
93.8729
93.4088
92.9447
92.4806
92.0165
91.5524
91.0883
90.6242
90.1602
89.6961
89.2320
88.7679
88.3038
87.8397
87.3756
86.9115
86.4474
85.9833
85.5192
85.0551
84.5910
84.1269
83.6629
83.1988
82.7347
82.2706
81.8065
81.3424
80.8783
80.4142
79.9501
79.4860
79.0219
78.5578
78.0937
77.6296
77.1656
76.7015
76.2374
75.7733
75.3092
74.8451
74.3810
73.9169
73.4528
72.9887
72.5246
72.0605
71.5964
71.1323
70.6682
70.2041
69.7400
69.2759
68.8119
68.3478
67.8837
67.4196
66.9555
66.4914
66.0273
65.5632
65.0991
64.6350
64.1708
63.7067
63.2426
62.7785
62.3144
61.8503
61.3862
60.9221
60.4580
59.9939
59.5297
59.0656
58.6015
58.1374
57.6733
57.2091
56.7450
56.2809
55.8168
55.3526
54.8885
54.4244
53.9603
53.4961
53.0320
52.5679
52.1038
51.6396
51.1755
50.7114
50.2473
49.7832
49.3192
48.8551
48.3910
47.9270
47.4630
46.9990
46.5350
46.0711
45.6072
45.1433
44.6795
44.2157
43.7520
43.2883
42.8247
42.3612
41.8978
41.4344
40.9712
40.5081
40.0451
39.5823
39.1196
38.6571
38.1948
37.7327
37.2708
36.8091
36.3477
35.8866
35.4259
34.9654
34.5054
34.0457
33.5865
33.1277
32.6694
32.2117
31.7545
31.2980
30.8421
30.3870
29.9325
29.4789
29.0262
28.5744
28.1235
27.6737
27.2250
26.7774
26.3311
25.8861
25.4424
25.0002
24.5596
24.1205
23.6831
23.2475
22.8138
22.3820
21.9523
21.5247
21.0995
20.6767
20.2566
19.8394
19.4255
19.0155
18.6104
18.2117
17.8222
17.4465
17.0922
16.7727
16.5109
16.3461
142.7051
142.7051
142.7538
142.8694
143.0608
143.3214
143.6283
143.9493
144.2528
144.5136
144.7155
144.8503
144.9163
144.9158
144.8538
144.7361
144.5693
144.3595
144.1126
143.8337
143.5274
143.1978
142.8482
142.4818
142.1010
141.7080
141.3046
140.8924
140.4726
140.0465
139.6150
139.1788
138.7386
138.2951
137.8487
137.3999
136.9489
136.4961
136.0418
135.5861
135.1293
134.6715
134.2128
133.7534
133.2934
132.8329
132.3719
131.9104
131.4487
130.9866
130.5242
130.0617
129.5989
129.1360
128.6729
128.2096
127.7463
127.2829
126.8194
126.3558
125.8922
125.4284
124.9647
124.5009
124.0371
123.5732
123.1093
122.6454
122.1814
121.7175
121.2535
120.7895
120.3255
119.8615
119.3975
118.9335
118.4694
118.0054
117.5413
117.0773
116.6132
116.1491
115.6851
115.2210
114.7569
114.2928
113.8288
113.3647
112.9006
112.4365
111.9724
111.5084
111.0443
110.5802
110.1161
109.6520
109.1879
108.7238
108.2597
107.7957
107.3316
106.8675
106.4034
105.9393
105.4752
105.0111
104.5470
104.0829
103.6188
103.1547
102.6907
102.2266
101.7625
101.2984
100.8343
100.3702
99.9061
99.4420
98.9779
98.5138
98.0497
97.5856
97.1215
96.6575
96.1934
95.7293
95.2652
94.8011
94.3370
93.8729
93.4088
92.9447
92.4806
92.0165
91.5524
91.0883
90.6242
90.1602
89.6961
89.2320
88.7679
88.3038
87.8397
87.3756
86.9115
86.4474
85.9833
85.5192
85.0551
84.5910
84.1269
83.6629
83.1988
82.7347
82.2706
81.8065
81.3424
80.8783
80.4142
79.9501
79.4860
79.0219
78.5578
78.0937
77.6296
77.1656
76.7015
76.2374
75.7733
75.3092
74.8451
74.3810
73.9169
73.4528
72.9887
72.5246
72.0605
71.5964
71.1323
70.6682
70.2041
69.7400
69.2759
68.8119
68.3478
67.8837
67.4196
66.9555
66.4914
66.0273
65.5632
65.0991
64.6350
64.1708
63.7067
63.2426
62.7785
62.3144
61.8503
61.3862
60.9221
60.4580
59.9939
59.5297
59.0656
58.6015
58.1374
57.6733
57.2091
56.7450
56.2809
55.8168
55.3526
54.8885
54.4244
53.9603
53.4961
53.0320
52.5679
52.1038
51.6396
51.1755
50.7114
50.2473
49.7832
49.3192
48.8551
48.3910
47.9270
47.4630
46.9990
46.5350
46.0711
45.6072
45.1433
44.6795
44.2157
43.7520
43.2883
42.8247
42.3612
41.8978
41.4344
40.9712
40.5081
40.0451
39.5823
39.1196
38.6571
38.1948
37.7327
37.2708
36.8091
36.3477
35.8866
35.4259
34.9654
34.5054
34.0457
33.5865
33.1277
32.6694
32.2117
31.7545
31.2980
30.8421
30.3870
29.9325
29.4789
29.0262
28.5744
28.1235
27.6737
27.2250
26.7774
26.3311
25.8861
25.4424
25.0002
24.5596
24.1205
23.6831
23.2475
22.8138
22.3820
21.9523
21.5247
21.0995
20.6767
20.2566
19.8394
19.4255
19.0155
18.6104
18.2117
17.8222
17.4465
17.0922
16.7727
16.5109
16.3461
143.4817
143.4817
143.5671
143.7679
144.0936
144.5181
144.9815
145.4167
145.7734
146.0253
146.1663
146.2037
146.1505
146.0218
145.8314
145.5915
145.3118
145.0003
144.6632
144.3054
143.9306
143.5420
143.1419
142.7322
142.3145
141.8900
141.4599
141.0250
140.5859
140.1433
139.6978
139.2497
138.7994
138.3473
137.8935
137.4383
136.9820
136.5246
136.0663
135.6072
135.1475
134.6872
134.2264
133.7652
133.3036
132.8417
132.3795
131.9171
131.4544
130.9916
130.5286
130.0654
129.6022
129.1388
128.6753
128.2118
127.7482
127.2845
126.8208
126.3570
125.8932
125.4294
124.9655
124.5016
124.0377
123.5738
123.1098
122.6458
122.1818
121.7178
121.2538
120.7898
120.3257
119.8617
119.3977
118.9336
118.4695
118.0055
117.5414
117.0773
116.6133
116.1492
115.6851
115.2210
114.7570
114.2929
113.8288
113.3647
112.9006
112.4366
111.9725
111.5084
111.0443
110.5802
110.1161
109.6520
109.1879
108.7238
108.2598
107.7957
107.3316
106.8675
106.4034
105.9393
105.4752
105.0111
104.5470
104.0829
103.6188
103.1547
102.6907
102.2266
101.7625
101.2984
100.8343
100.3702
99.9061
99.4420
98.9779
98.5138
98.0497
97.5856
97.1215
96.6575
96.1934
95.7293
95.2652
94.8011
94.3370
93.8729
93.4088
92.9447
92.4806
92.0165
91.5524
91.0883
90.6242
90.1602
89.6961
89.2320
88.7679
88.3038
87.8397
87.3756
86.9115
86.4474
85.9833
85.5192
85.0551
84.5910
84.1269
83.6629
83.1988
82.7347
82.2706
81.8065
81.3424
80.8783
80.4142
79.9501
79.4860
79.0219
78.5578
78.0937
77.6296
77.1656
76.7015
76.2374
75.7733
75.3092
74.8451
74.3810
73.9169
73.4528
72.9887
72.5246
72.0605
71.5964
71.1323
70.6682
70.2041
69.7400
69.2759
68.8119
68.3478
67.8837
67.4196
66.9555
66.4914
66.0273
65.5632
65.0991
64.6350
64.1708
63.7067
63.2426
62.7785
62.3144
61.8503
61.3862
60.9221
60.4580
59.9939
59.5297
59.0656
58.6015
58.1374
57.6733
57.2091
56.7450
56.2809
55.8168
55.3526
54.8885
54.4244
53.9603
53.4961
53.0320
52.5679
52.1038
51.6396
51.1755
50.7114
50.2473
49.7832
49.3192
48.8551
48.3910
47.9270
47.4630
46.9990
46.5350
46.0711
45.6072
45.1433
44.6795
44.2157
43.7520
43.2883
42.8247
42.3612
41.8978
41.4344
40.9712
40.5081
40.0451
39.5823
39.1196
38.6571
38.1948
37.7327
37.2708
36.8091
36.3477
35.8866
35.4259
34.9654
34.5054
34.0457
33.5865
33.1277
32.6694
32.2117
31.7545
31.2980
30.8421
30.3870
29.9325
29.4789
29.0262
28.5744
28.1235
27.6737
27.2250
26.7774
26.3311
25.8861
25.4424
25.0002
24.5596
24.1205
23.6831
23.2475
22.8138
22.3820
21.9523
21.5247
21.0995
20.6767
20.2566
19.8394
19.4255
19.0155
18.6104
18.2117
17.8222
17.4465
17.0922
16.7727
16.5109
16.3461
145.0501
145.0501
145.2285
145.6470
146.3161
147.1506
147.9755
148.6362
149.0545
149.2227
149.1746
148.9590
148.6237
148.2086
147.7435
147.2498
146.7415
146.2277
145.7137
145.2027
144.6961
144.1945
143.6980
143.2061
142.7185
142.2346
141.7539
141.2760
140.8005
140.3269
139.8549
139.3843
138.9148
138.4463
137.9786
137.5115
137.0449
136.5788
136.1130
135.6475
135.1823
134.7173
134.2524
133.7877
133.3231
132.8586
132.3941
131.9297
131.4654
131.0011
130.5369
130.0726
129.6084
129.1443
128.6801
128.2160
127.7518
127.2877
126.8236
126.3594
125.8953
125.4312
124.9671
124.5030
124.0389
123.5748
123.1107
122.6466
122.1825
121.7184
121.2544
120.7903
120.3262
119.8621
119.3980
118.9339
118.4698
118.0057
117.5416
117.0775
116.6134
116.1493
115.6852
115.2212
114.7571
114.2930
113.8289
113.3648
112.9007
112.4366
111.9725
111.5084
111.0443
110.5802
110.1161
109.6520
109.1880
108.7239
108.2598
107.7957
107.3316
106.8675
106.4034
105.9393
105.4752
105.0111
104.5470
104.0829
103.6188
103.1547
102.6907
102.2266
101.7625
101.2984
100.8343
100.3702
99.9061
99.4420
98.9779
98.5138
98.0497
97.5856
97.1215
96.6575
96.1934
95.7293
95.2652
94.8011
94.3370
93.8729
93.4088
92.9447
92.4806
92.0165
91.5524
91.0883
90.6242
90.1602
89.6961
89.2320
88.7679
88.3038
87.8397
87.3756
86.9115
86.4474
85.9833
85.5192
85.0551
84.5910
84.1269
83.6629
83.1988
82.7347
82.2706
81.8065
81.3424
80.8783
80.4142
79.9501
79.4860
79.0219
78.5578
78.0937
77.6296
77.1656
76.7015
76.2374
75.7733
75.3092
74.8451
74.3810
73.9169
73.4528
72.9887
72.5246
72.0605
71.5964
71.1323
70.6682
70.2041
69.7400
69.2759
68.8119
68.3478
67.8837
67.4196
66.9555
66.4914
66.0273
65.5632
65.0991
64.6350
64.1708
63.7067
63.2426
62.7785
62.3144
61.8503
61.3862
60.9221
60.4580
59.9939
59.5297
59.0656
58.6015
58.1374
57.6733
57.2091
56.7450
56.2809
55.8168
55.3526
54.8885
54.4244
53.9603
53.4961
53.0320
52.5679
52.1038
51.6396
51.1755
50.7114
50.2473
49.7832
49.3192
48.8551
48.3910
47.9270
47.4630
46.9990
46.5350
46.0711
45.6072
45.1433
44.6795
44.2157
43.7520
43.2883
42.8247
42.3612
41.8978
41.4344
40.9712
40.5081
40.0451
39.5823
39.1196
38.6571
38.1948
37.7327
37.2708
36.8091
36.3477
35.8866
35.4259
34.9654
34.5054
34.0457
33.5865
33.1277
32.6694
32.2117
31.7545
31.2980
30.8421
30.3870
29.9325
29.4789
29.0262
28.5744
28.1235
27.6737
27.2250
26.7774
26.3311
25.8861
25.4424
25.0002
24.5596
24.1205
23.6831
23.2475
22.8138
22.3820
21.9523
21.5247
21.0995
20.6767
20.2566
19.8394
19.4255
19.0155
18.6104
18.2117
17.8222
17.4465
17.0922
16.7727
16.5109
16.3461
147.8774
147.8774
148.2788
149.2282
150.7464
152.5722
154.1623
155.1699
155.5297
155.3447
154.7718
153.9580
153.0167
152.0261
151.0358
150.0743
149.1564
148.2878
147.4688
146.6969
145.9678
145.2770
144.6196
143.9912
143.3878
142.8055
142.2414
141.6925
141.1567
140.6318
140.1161
139.6083
139.1071
138.6115
138.1206
137.6337
137.1502
136.6695
136.1913
135.7151
135.2407
134.7677
134.2961
133.8255
133.3558
132.8870
132.4187
131.9511
131.4840
131.0173
130.5509
130.0849
129.6191
129.1535
128.6882
128.2230
127.7579
127.2930
126.8282
126.3635
125.8989
125.4343
124.9698
124.5054
124.0410
123.5766
123.1123
122.6480
122.1838
121.7195
121.2553
120.7911
120.3269
119.8627
119.3985
118.9344
118.4702
118.0061
117.5419
117.0778
116.6137
116.1496
115.6854
115.2213
114.7572
114.2931
113.8290
113.3649
112.9008
112.4367
111.9726
111.5085
111.0444
110.5803
110.1162
109.6521
109.1880
108.7239
108.2598
107.7957
107.3316
106.8675
106.4034
105.9393
105.4752
105.0111
104.5470
104.0829
103.6188
103.1548
102.6907
102.2266
101.7625
101.2984
100.8343
100.3702
99.9061
99.4420
98.9779
98.5138
98.0497
97.5856
97.1215
96.6575
96.1934
95.7293
95.2652
94.8011
94.3370
93.8729
93.4088
92.9447
92.4806
92.0165
91.5524
91.0883
90.6242
90.1602
89.6961
89.2320
88.7679
88.3038
87.8397
87.3756
86.9115
86.4474
85.9833
85.5192
85.0551
84.5910
84.1269
83.6629
83.1988
82.7347
82.2706
81.8065
81.3424
80.8783
80.4142
79.9501
79.4860
79.0219
78.5578
78.0937
77.6296
77.1656
76.7015
76.2374
75.7733
75.3092
74.8451
74.3810
73.9169
73.4528
72.9887
72.5246
72.0605
71.5964
71.1323
70.6682
70.2041
69.7400
69.2759
68.8119
68.3478
67.8837
67.4196
66.9555
66.4914
66.0273
65.5632
65.0991
64.6350
64.1708
63.7067
63.2426
62.7785
62.3144
61.8503
61.3862
60.9221
60.4580
59.9939
59.5297
59.0656
58.6015
58.1374
57.6733
57.2091
56.7450
56.2809
55.8168
55.3526
54.8885
54.4244
53.9603
53.4961
53.0320
52.5679
52.1038
51.6396
51.1755
50.7114
50.2473
49.7832
49.3192
48.8551
48.3910
47.9270
47.4630
46.9990
46.5350
46.0711
45.6072
45.1433
44.6795
44.2157
43.7520
43.2883
42.8247
42.3612
41.8978
41.4344
40.9712
40.5081
40.0451
39.5823
39.1196
38.6571
38.1948
37.7327
37.2708
36.8091
36.3477
35.8866
35.4259
34.9654
34.5054
34.0457
33.5865
33.1277
32.6694
32.2117
31.7545
31.2980
30.8421
30.3870
29.9325
29.4789
29.0262
28.5744
28.1235
27.6737
27.2250
26.7774
26.3311
25.8861
25.4424
25.0002
24.5596
24.1205
23.6831
23.2475
22.8138
22.3820
21.9523
21.5247
21.0995
20.6767
20.2566
19.8394
19.4255
19.0155
18.6104
18.2117
17.8222
17.4465
17.0922
16.7727
16.5109
16.3461
152.6308
152.6308
153.5501
155.7726
159.4032
163.6823
166.7588
168.0123
167.7108
166.3805
164.4909
162.3722
160.2278
158.1706
156.2550
154.5009
152.9089
151.4690
150.1670
148.9870
147.9132
146.9310
146.0273
145.1905
144.4105
143.6785
142.9874
142.3306
141.7030
141.1000
140.5178
139.9532
139.4035
138.8665
138.3401
137.8228
137.3133
136.8103
136.3128
135.8202
135.3316
134.8464
134.3642
133.8845
133.4070
132.9314
132.4573
131.9846
131.5131
131.0426
130.5730
130.1041
129.6358
129.1681
128.7009
128.2341
127.7676
127.3015
126.8356
126.3700
125.9045
125.4393
124.9742
124.5092
124.0443
123.5795
123.1149
122.6502
122.1857
121.7212
121.2568
120.7924
120.3280
119.8637
119.3994
118.9352
118.4709
118.0067
117.5425
117.0783
116.6141
116.1499
115.6858
115.2216
114.7575
114.2933
113.8292
113.3651
112.9009
112.4368
111.9727
111.5086
111.0445
110.5804
110.1162
109.6521
109.1880
108.7239
108.2598
107.7957
107.3316
106.8675
106.4034
105.9393
105.4752
105.0111
104.5471
104.0830
103.6189
103.1548
102.6907
102.2266
101.7625
101.2984
100.8343
100.3702
99.9061
99.4420
98.9779
98.5138
98.0497
97.5856
97.1215
96.6575
96.1934
95.7293
95.2652
94.8011
94.3370
93.8729
93.4088
92.9447
92.4806
92.0165
91.5524
91.0883
90.6242
90.1602
89.6961
89.2320
88.7679
88.3038
87.8397
87.3756
86.9115
86.4474
85.9833
85.5192
85.0551
84.5910
84.1269
83.6629
83.1988
82.7347
82.2706
81.8065
81.3424
80.8783
80.4142
79.9501
79.4860
79.0219
78.5578
78.0937
77.6296
77.1656
76.7015
76.2374
75.7733
75.3092
74.8451
74.3810
73.9169
73.4528
72.9887
72.5246
72.0605
71.5964
71.1323
70.6682
70.2041
69.7400
69.2759
68.8119
68.3478
67.8837
67.4196
66.9555
66.4914
66.0273
65.5632
65.0991
64.6350
64.1708
63.7067
63.2426
62.7785
62.3144
61.8503
61.3862
60.9221
60.4580
59.9939
59.5297
59.0656
58.6015
58.1374
57.6733
57.2091
56.7450
56.2809
55.8168
55.3526
54.8885
54.4244
53.9603
53.4961
53.0320
52.5679
52.1038
51.6396
51.1755
50.7114
50.2473
49.7832
49.3192
48.8551
48.3910
47.9270
47.4630
46.9990
46.5350
46.0711
45.6072
45.1433
44.6795
44.2157
43.7520
43.2883
42.8247
42.3612
41.8978
41.4344
40.9712
40.5081
40.0451
39.5823
39.1196
38.6571
38.1948
37.7327
37.2708
36.8091
36.3477
35.8866
35.4259
34.9654
34.5054
34.0457
33.5865
33.1277
32.6694
32.2117
31.7545
31.2980
30.8421
30.3870
29.9325
29.4789
29.0262
28.5744
28.1235
27.6737
27.2250
26.7774
26.3311
25.8861
25.4424
25.0002
24.5596
24.1205
23.6831
23.2475
22.8138
22.3820
21.9523
21.5247
21.0995
20.6767
20.2566
19.8394
19.4255
19.0155
18.6104
18.2117
17.8222
17.4465
17.0922
16.7727
16.5109
16.3461
160.1540
160.1540
162.2240
167.4359
176.4280
187.2054
192.5887
192.7049
189.6492
185.1667
180.3036
175.5917
171.2628
167.3916
163.9767
160.9835
158.3648
156.0719
154.0587
152.2839
150.7114
149.3098
148.0527
146.9174
145.8848
144.9388
144.0659
143.2546
142.4954
141.7803
141.1024
140.4560
139.8364
139.2394
138.6617
138.1004
137.5530
137.0174
136.4920
135.9753
135.4659
134.9628
134.4652
133.9722
133.4831
132.9975
132.5148
132.0346
131.5566
131.0804
130.6059
130.1328
129.6608
129.1899
128.7199
128.2507
127.7822
127.3142
126.8467
126.3797
125.9130
125.4467
124.9807
124.5149
124.0493
123.5839
123.1187
122.6536
122.1887
121.7238
121.2591
120.7944
120.3298
119.8653
119.4008
118.9363
118.4720
118.0076
117.5433
117.0790
116.6147
116.1505
115.6862
115.2220
114.7578
114.2936
113.8295
113.3653
112.9012
112.4370
111.9729
111.5087
111.0446
110.5805
110.1164
109.6522
109.1881
108.7240
108.2599
107.7958
107.3317
106.8676
106.4035
105.9394
105.4753
105.0112
104.5471
104.0830
103.6189
103.1548
102.6907
102.2266
101.7625
101.2984
100.8343
100.3702
99.9061
99.4420
98.9779
98.5138
98.0497
97.5856
97.1216
96.6575
96.1934
95.7293
95.2652
94.8011
94.3370
93.8729
93.4088
92.9447
92.4806
92.0165
91.5524
91.0883
90.6242
90.1602
89.6961
89.2320
88.7679
88.3038
87.8397
87.3756
86.9115
86.4474
85.9833
85.5192
85.0551
84.5910
84.1270
83.6629
83.1988
82.7347
82.2706
81.8065
81.3424
80.8783
80.4142
79.9501
79.4860
79.0219
78.5578
78.0937
77.6296
77.1656
76.7015
76.2374
75.7733
75.3092
74.8451
74.3810
73.9169
73.4528
72.9887
72.5246
72.0605
71.5964
71.1323
70.6682
70.2041
69.7400
69.2759
68.8119
68.3478
67.8837
67.4196
66.9555
66.4914
66.0273
65.5632
65.0991
64.6350
64.1708
63.7067
63.2426
62.7785
62.3144
61.8503
61.3862
60.9221
60.4580
59.9939
59.5297
59.0656
58.6015
58.1374
57.6733
57.2091
56.7450
56.2809
55.8168
55.3526
54.8885
54.4244
53.9603
53.4961
53.0320
52.5679
52.1038
51.6396
51.1755
50.7114
50.2473
49.7832
49.3192
48.8551
48.3910
47.9270
47.4630
46.9990
46.5350
46.0711
45.6072
45.1433
44.6795
44.2157
43.7520
43.2883
42.8247
42.3612
41.8978
41.4344
40.9712
40.5081
40.0451
39.5823
39.1196
38.6571
38.1948
37.7327
37.2708
36.8091
36.3477
35.8866
35.4259
34.9654
34.5054
34.0457
33.5865
33.1277
32.6694
32.2117
31.7545
31.2980
30.8421
30.3870
29.9325
29.4789
29.0262