# vtk DataFile Version 5.0
Example 3D regular grid VTK file.
ASCII
DATASET UNSTRUCTURED_GRID
POINTS 90601 float
0 0 0
0 10 0
0 20 0
0 30 0
0 40 0
0 50 0
0 60 0
0 70 0
0 80 0
0 90 0
0 100 0
0 110 0
0 120 0
0 130 0
0 140 0
0 150 0
0 160 0
0 170 0
0 180 0
0 190 0
0 200 0
0 210 0
0 220 0
0 230 0
0 240 0
0 250 0
0 260 0
0 270 0
0 280 0
0 290 0
0 300 0
0 310 0
0 320 0
0 330 0
0 340 0
0 350 0
0 360 0
0 370 0
0 380 0
0 390 0
0 400 0
0 410 0
0 420 0
0 430 0
0 440 0
0 450 0
0 460 0
0 470 0
0 480 0
0 490 0
0 500 0
0 510 0
0 520 0
0 530 0
0 540 0
0 550 0
0 560 0
0 570 0
0 580 0
0 590 0
0 600 0
0 610 0
0 620 0
0 630 0
0 640 0
0 650 0
0 660 0
0 670 0
0 680 0
0 690 0
0 700 0
0 710 0
0 720 0
0 730 0
0 740 0
0 750 0
0 760 0
0 770 0
0 780 0
0 790 0
0 800 0
0 810 0
0 820 0
0 830 0
0 840 0
0 850 0
0 860 0
0 870 0
0 880 0
0 890 0
0 900 0
0 910 0
0 920 0
0 930 0
0 940 0
0 950 0
0 960 0
0 970 0
0 980 0
0 990 0
0 1000 0
0 1010 0
0 1020 0
0 1030 0
0 1040 0
0 1050 0
0 1060 0
0 1070 0
0 1080 0
0 1090 0
0 1100 0
0 1110 0
0 1120 0
0 1130 0
0 1140 0
0 1150 0
0 1160 0
0 1170 0
0 1180 0
0 1190 0
0 1200 0
0 1210 0
0 1220 0
0 1230 0
0 1240 0
0 1250 0
0 1260 0
0 1270 0
0 1280 0
0 1290 0
0 1300 0
0 1310 0
0 1320 0
0 1330 0
0 1340 0
0 1350 0
0 1360 0
0 1370 0
0 1380 0
0 1390 0
0 1400 0
0 1410 0
0 1420 0
0 1430 0
0 1440 0
0 1450 0
0 1460 0
0 1470 0
0 1480 0
0 1490 0
0 1500 0
0 1510 0
0 1520 0
0 1530 0
0 1540 0
0 1550 0
0 1560 0
0 1570 0
0 1580 0
0 1590 0
0 1600 0
0 1610 0
0 1620 0
0 1630 0
0 1640 0
0 1650 0
0 1660 0
0 1670 0
0 1680 0
0 1690 0
0 1700 0
0 1710 0
0 1720 0
0 1730 0
0 1740 0
0 1750 0
0 1760 0
0 1770 0
0 1780 0
0 1790 0
0 1800 0
0 1810 0
0 1820 0
0 1830 0
0 1840 0
0 1850 0
0 1860 0
0 1870 0
0 1880 0
0 1890 0
0 1900 0
0 1910 0
0 1920 0
0 1930 0
0 1940 0
0 1950 0
0 1960 0
0 1970 0
0 1980 0
0 1990 0
0 2000 0
0 2010 0
0 2020 0
0 2030 0
0 2040 0
0 2050 0
0 2060 0
0 2070 0
0 2080 0
0 2090 0
0 2100 0
0 2110 0
0 2120 0
0 2130 0
0 2140 0
0 2150 0
0 2160 0
0 2170 0
0 2180 0
0 2190 0
0 2200 0
0 2210 0
0 2220 0
0 2230 0
0 2240 0
0 2250 0
0 2260 0
0 2270 0
0 2280 0
0 2290 0
0 2300 0
0 2310 0
0 2320 0
0 2330 0
0 2340 0
0 2350 0
0 2360 0
0 2370 0
0 2380 0
0 2390 0
0 2400 0
0 2410 0
0 2420 0
0 2430 0
0 2440 0
0 2450 0
0 2460 0
0 2470 0
0 2480 0
0 2490 0
0 2500 0
0 2510 0
0 2520 0
0 2530 0
0 2540 0
0 2550 0
0 2560 0
0 2570 0
0 2580 0
0 2590 0
0 2600 0
0 2610 0
0 2620 0
0 2630 0
0 2640 0
0 2650 0
0 2660 0
0 2670 0
0 2680 0
0 2690 0
0 2700 0
0 2710 0
0 2720 0
0 2730 0
0 2740 0
0 2750 0
0 2760 0
0 2770 0
0 2780 0
0 2790 0
0 2800 0
0 2810 0
0 2820 0
0 2830 0
0 2840 0
0 2850 0
0 2860 0
0 2870 0
0 2880 0
0 2890 0
0 2900 0
0 2910 0
0 2920 0
0 2930 0
0 2940 0
0 2950 0
0 2960 0
0 2970 0
0 2980 0
0 2990 0
0 3000 0
10 0 0
10 10 0
10 20 0
10 30 0
10 40 0
10 50 0
10 60 0
10 70 0
10 80 0
10 90 0
10 100 0
10 110 0
10 120 0
10 130 0
10 140 0
10 150 0
10 160 0
10 170 0
10 180 0
10 190 0
10 200 0
10 210 0
10 220 0
10 230 0
10 240 0
10 250 0
10 260 0
10 270 0
10 280 0
10 290 0
10 300 0
10 310 0
10 320 0
10 330 0
10 340 0
10 350 0
10 360 0
10 370 0
10 380 0
10 390 0
10 400 0
10 410 0
10 420 0
10 430 0
10 440 0
10 450 0
10 460 0
10 470 0
10 480 0
10 490 0
10 500 0
10 510 0
10 520 0
10 530 0
10 540 0
10 550 0
10 560 0
10 570 0
10 580 0
10 590 0
10 600 0
10 610 0
10 620 0
10 630 0
10 640 0
10 650 0
10 660 0
10 670 0
10 680 0
10 690 0
10 700 0
10 710 0
10 720 0
10 730 0
10 740 0
10 750 0
10 760 0
10 770 0
10 780 0
10 790 0
10 800 0
10 810 0
10 820 0
10 830 0
10 840 0
10 850 0
10 860 0
10 870 0
10 880 0
10 890 0
10 900 0
10 910 0
10 920 0
10 930 0
10 940 0
10 950 0
10 960 0
10 970 0
10 980 0
10 990 0
10 1000 0
10 1010 0
10 1020 0
10 1030 0
10 1040 0
10 1050 0
10 1060 0
10 1070 0
10 1080 0
10 1090 0
10 1100 0
10 1110 0
10 1120 0
10 1130 0
10 1140 0
10 1150 0
10 1160 0
10 1170 0
10 1180 0
10 1190 0
10 1200 0
10 1210 0
10 1220 0
10 1230 0
10 1240 0
10 1250 0
10 1260 0
10 1270 0
10 1280 0
10 1290 0
10 1300 0
10 1310 0
10 1320 0
10 1330 0
10 1340 0
10 1350 0
10 1360 0
10 1370 0
10 1380 0
10 1390 0
10 1400 0
10 1410 0
10 1420 0
10 1430 0
10 1440 0
10 1450 0
10 1460 0
10 1470 0
10 1480 0
10 1490 0
10 1500 0
10 1510 0
10 1520 0
10 1530 0
10 1540 0
10 1550 0
10 1560 0
10 1570 0
10 1580 0
10 1590 0
10 1600 0
10 1610 0
10 1620 0
10 1630 0
10 1640 0
10 1650 0
10 1660 0
10 1670 0
10 1680 0
10 1690 0
10 1700 0
10 1710 0
10 1720 0
10 1730 0
10 1740 0
10 1750 0
10 1760 0
10 1770 0
10 1780 0
10 1790 0
10 1800 0
10 1810 0
10 1820 0
10 1830 0
10 1840 0
10 1850 0
10 1860 0
10 1870 0
10 1880 0
10 1890 0
10 1900 0
10 1910 0
10 1920 0
10 1930 0
10 1940 0
10 1950 0
10 1960 0
10 1970 0
10 1980 0
10 1990 0
10 2000 0
10 2010 0
10 2020 0
10 2030 0
10 2040 0
10 2050 0
10 2060 0
10 2070 0
10 2080 0
10 2090 0
10 2100 0
10 2110 0
10 2120 0
10 2130 0
10 2140 0
10 2150 0
10 2160 0
10 2170 0
10 2180 0
10 2190 0
10 2200 0
10 2210 0
10 2220 0
10 2230 0
10 2240 0
10 2250 0
10 2260 0
10 2270 0
10 2280 0
10 2290 0
10 2300 0
10 2310 0
10 2320 0
10 2330 0
10 2340 0
10 2350 0
10 2360 0
10 2370 0
10 2380 0
10 2390 0
10 2400 0
10 2410 0
10 2420 0
10 2430 0
10 2440 0
10 2450 0
10 2460 0
10 2470 0
10 2480 0
10 2490 0
10 2500 0
10 2510 0
10 2520 0
10 2530 0
10 2540 0
10 2550 0
10 2560 0
10 2570 0
10 2580 0
10 2590 0
10 2600 0
10 2610 0
10 2620 0
10 2630 0
10 2640 0
10 2650 0
10 2660 0
10 2670 0
10 2680 0
10 2690 0
10 2700 0
10 2710 0
10 2720 0
10 2730 0
10 2740 0
10 2750 0
10 2760 0
10 2770 0
10 2780 0
10 2790 0
10 2800 0
10 2810 0
10 2820 0
10 2830 0
10 2840 0
10 2850 0
10 2860 0
10 2870 0
10 2880 0
10 2890 0
10 2900 0
10 2910 0
10 2920 0
10 2930 0
10 2940 0
10 2950 0
10 2960 0
10 2970 0
10 2980 0
10 2990 0
10 3000 0
20 0 0
20 10 0
20 20 0
20 30 0
20 40 0
20 50 0
20 60 0
20 70 0
20 80 0
20 90 0
20 100 0
20 110 0
20 120 0
20 130 0
20 140 0
20 150 0
20 160 0
20 170 0
20 180 0
20 190 0
20 200 0
20 210 0
20 220 0
20 230 0
20 240 0
20 250 0
20 260 0
20 270 0
20 280 0
20 290 0
20 300 0
20 310 0
20 320 0
20 330 0
20 340 0
20 350 0
20 360 0
20 370 0
20 380 0
20 390 0
20 400 0
20 410 0
20 420 0
20 430 0
20 440 0
20 450 0
20 460 0
20 470 0
20 480 0
20 490 0
20 500 0
20 510 0
20 520 0
20 530 0
20 540 0
20 550 0
20 560 0
20 570 0
20 580 0
20 590 0
20 600 0
20 610 0
20 620 0
20 630 0
20 640 0
20 650 0
20 660 0
20 670 0
20 680 0
20 690 0
20 700 0
20 710 0
20 720 0
20 730 0
20 740 0
20 750 0
20 760 0
20 770 0
20 780 0
20 790 0
20 800 0
20 810 0
20 820 0
20 830 0
20 840 0
20 850 0
20 860 0
20 870 0
20 880 0
20 890 0
20 900 0
20 910 0
20 920 0
20 930 0
20 940 0
20 950 0
20 960 0
20 970 0
20 980 0
20 990 0
20 1000 0
20 1010 0
20 1020 0
20 1030 0
20 1040 0
20 1050 0
20 1060 0
20 1070 0
20 1080 0
20 1090 0
20 1100 0
20 1110 0
20 1120 0
20 1130 0
20 1140 0
20 1150 0
20 1160 0
20 1170 0
20 1180 0
20 1190 0
20 1200 0
20 1210 0
20 1220 0
20 1230 0
20 1240 0
20 1250 0
20 1260 0
20 1270 0
20 1280 0
20 1290 0
20 1300 0
20 1310 0
20 1320 0
20 1330 0
20 1340 0
20 1350 0
20 1360 0
20 1370 0
20 1380 0
20 1390 0
20 1400 0
20 1410 0
20 1420 0
20 1430 0
20 1440 0
20 1450 0
20 1460 0
20 1470 0
20 1480 0
20 1490 0
20 1500 0
20 1510 0
20 1520 0
20 1530 0
20 1540 0
20 1550 0
20 1560 0
20 1570 0
20 1580 0
20 1590 0
20 1600 0
20 1610 0
20 1620 0
20 1630 0
20 1640 0
20 1650 0
20 1660 0
20 1670 0
20 1680 0
20 1690 0
20 1700 0
20 1710 0
20 1720 0
20 1730 0
20 1740 0
20 1750 0
20 1760 0
20 1770 0
20 1780 0
20 1790 0
20 1800 0
20 1810 0
20 1820 0
20 1830 0
20 1840 0
20 1850 0
20 1860 0
20 1870 0
20 1880 0
20 1890 0
20 1900 0
20 1910 0
20 1920 0
20 1930 0
20 1940 0
20 1950 0
20 1960 0
20 1970 0
20 1980 0
20 1990 0
20 2000 0
20 2010 0
20 2020 0
20 2030 0
20 2040 0
20 2050 0
20 2060 0
20 2070 0
20 2080 0
20 2090 0
20 2100 0
20 2110 0
20 2120 0
20 2130 0
20 2140 0
20 2150 0
20 2160 0
20 2170 0
20 2180 0
20 2190 0
20 2200 0
20 2210 0
20 2220 0
20 2230 0
20 2240 0
20 2250 0
20 2260 0
20 2270 0
20 2280 0
20 2290 0
20 2300 0
20 2310 0
20 2320 0
20 2330 0
20 2340 0
20 2350 0
20 2360 0
20 2370 0
20 2380 0
20 2390 0
20 2400 0
20 2410 0
20 2420 0
20 2430 0
20 2440 0
20 2450 0
20 2460 0
20 2470 0
20 2480 0
20 2490 0
20 2500 0
20 2510 0
20 2520 0
20 2530 0
20 2540 0
20 2550 0
20 2560 0
20 2570 0
20 2580 0
20 2590 0
20 2600 0
20 2610 0
20 2620 0
20 2630 0
20 2640 0
20 2650 0
20 2660 0
20 2670 0
20 2680 0
20 2690 0
20 2700 0
20 2710 0
20 2720 0
20 2730 0
20 2740 0
20 2750 0
20 2760 0
20 2770 0
20 2780 0
20 2790 0
20 2800 0
20 2810 0
20 2820 0
20 2830 0
20 2840 0
20 2850 0
20 2860 0
20 2870 0
20 2880 0
20 2890 0
20 2900 0
20 2910 0
20 2920 0
20 2930 0
20 2940 0
20 2950 0
20 2960 0
20 2970 0
20 2980 0
20 2990 0
20 3000 0
30 0 0
30 10 0
30 20 0
30 30 0
30 40 0
30 50 0
30 60 0
30 70 0
30 80 0
30 90 0
30 100 0
30 110 0
30 120 0
30 130 0
30 140 0
30 150 0
30 160 0
30 170 0
30 180 0
30 190 0
30 200 0
30 210 0
30 220 0
30 230 0
30 240 0
30 250 0
30 260 0
30 270 0
30 280 0
30 290 0
30 300 0
30 310 0
30 320 0
30 330 0
30 340 0
30 350 0
30 360 0
30 370 0
30 380 0
30 390 0
30 400 0
30 410 0
30 420 0
30 430 0
30 440 0
30 450 0
30 460 0
30 470 0
30 480 0
30 490 0
30 500 0
30 510 0
30 520 0
30 530 0
30 540 0
30 550 0
30 560 0
30 570 0
30 580 0
30 590 0
30 600 0
30 610 0
30 620 0
30 630 0
30 640 0
30 650 0
30 660 0
30 670 0
30 680 0
30 690 0
30 700 0
30 710 0
30 720 0
30 730 0
30 740 0
30 750 0
30 760 0
30 770 0
30 780 0
30 790 0
30 800 0
30 810 0
30 820 0
30 830 0
30 840 0
30 850 0
30 860 0
30 870 0
30 880 0
30 890 0
30 900 0
30 910 0
30 920 0
30 930 0
30 940 0
30 950 0
30 960 0
30 970 0
30 980 0
30 990 0
30 1000 0
30 1010 0
30 1020 0
30 1030 0
30 1040 0
30 1050 0
30 1060 0
30 1070 0
30 1080 0
30 1090 0
30 1100 0
30 1110 0
30 1120 0
30 1130 0
30 1140 0
30 1150 0
30 1160 0
30 1170 0
30 1180 0
30 1190 0
30 1200 0
30 1210 0
30 1220 0
30 1230 0
30 1240 0
30 1250 0
30 1260 0
30 1270 0
30 1280 0
30 1290 0
30 1300 0
30 1310 0
30 1320 0
30 1330 0
30 1340 0
30 1350 0
30 1360 0
30 1370 0
30 1380 0
30 1390 0
30 1400 0
30 1410 0
30 1420 0
30 1430 0
30 1440 0
30 1450 0
30 1460 0
30 1470 0
30 1480 0
30 1490 0
30 1500 0
30 1510 0
30 1520 0
30 1530 0
30 1540 0
30 1550 0
30 1560 0
30 1570 0
30 1580 0
30 1590 0
[...]
POINT_DATA 90601
SCALARS P float
LOOKUP_TABLE default
147.1251
147.1251
147.1620
147.2501
147.3981
147.6048
147.8579
148.1366
148.4163
148.6743
148.8921
149.0573
149.1631
149.2074
149.1914
149.1187
148.9940
148.8226
148.6100
148.3614
148.0815
147.7747
147.4449
147.0953
146.7289
146.3481
145.9552
145.5519
145.1397
144.7200
144.2939
143.8624
143.4262
142.9861
142.5426
142.0962
141.6473
141.1963
140.7435
140.2892
139.8335
139.3767
138.9188
138.4602
138.0008
137.5408
137.0802
136.6192
136.1577
135.6959
135.2339
134.7715
134.3089
133.8462
133.3832
132.9201
132.4569
131.9936
131.5301
131.0666
130.6030
130.1394
129.6757
129.2119
128.7481
128.2843
127.8204
127.3565
126.8926
126.4287
125.9647
125.5007
125.0367
124.5727
124.1087
123.6447
123.1807
122.7166
122.2526
121.7885
121.3245
120.8604
120.3964
119.9323
119.4682
119.0041
118.5401
118.0760
117.6119
117.1478
116.6837
116.2197
115.7556
115.2915
114.8274
114.3633
113.8992
113.4351
112.9710
112.5070
112.0429
111.5788
111.1147
110.6506
110.1865
109.7224
109.2583
108.7942
108.3301
107.8660
107.4020
106.9379
106.4738
106.0097
105.5456
105.0815
104.6174
104.1533
103.6892
103.2251
102.7610
102.2969
101.8328
101.3688
100.9047
100.4406
99.9765
99.5124
99.0483
98.5842
98.1201
97.6560
97.1919
96.7278
96.2637
95.7996
95.3356
94.8715
94.4074
93.9433
93.4792
93.0151
92.5510
92.0869
91.6228
91.1587
90.6946
90.2305
89.7664
89.3023
88.8383
88.3742
87.9101
87.4460
86.9819
86.5178
86.0537
85.5896
85.1255
84.6614
84.1973
83.7332
83.2691
82.8051
82.3410
81.8769
81.4128
80.9487
80.4846
80.0205
79.5564
79.0923
78.6282
78.1641
77.7000
77.2359
76.7718
76.3077
75.8437
75.3796
74.9155
74.4514
73.9873
73.5232
73.0591
72.5950
72.1309
71.6668
71.2027
70.7386
70.2745
69.8104
69.3463
68.8822
68.4181
67.9540
67.4899
67.0258
66.5617
66.0976
65.6335
65.1694
64.7053
64.2412
63.7771
63.3130
62.8489
62.3848
61.9207
61.4566
60.9924
60.5283
60.0642
59.6001
59.1360
58.6719
58.2077
57.7436
57.2795
56.8154
56.3513
55.8871
55.4230
54.9589
54.4948
54.0307
53.5666
53.1024
52.6383
52.1742
51.7101
51.2460
50.7820
50.3179
49.8538
49.3898
48.9258
48.4618
47.9978
47.5338
47.0699
46.6060
46.1421
45.6783
45.2145
44.7508
44.2872
43.8236
43.3600
42.8966
42.4332
41.9700
41.5068
41.0438
40.5809
40.1182
39.6556
39.1932
38.7310
38.2690
37.8072
37.3457
36.8844
36.4234
35.9628
35.5025
35.0425
34.5830
34.1238
33.6652
33.2070
32.7494
32.2923
31.8359
31.3801
30.9250
30.4706
30.0171
29.5644
29.1125
28.6617
28.2118
27.7631
27.3154
26.8690
26.4239
25.9802
25.5379
25.0973
24.6585
24.2218
23.7876
23.3564
22.9295
22.5084
22.0960
21.6974
21.3209
20.9808
20.7018
20.5260
147.1251
147.1251
147.1620
147.2501
147.3981
147.6048
147.8579
148.1366
148.4163
148.6743
148.8921
149.0573
149.1631
149.2074
149.1914
149.1187
148.9940
148.8226
148.6100
148.3614
148.0815
147.7747
147.4449
147.0953
146.7289
146.3481
145.9552
145.5519
145.1397
144.7200
144.2939
143.8624
143.4262
142.9861
142.5426
142.0962
141.6473
141.1963
140.7435
140.2892
139.8335
139.3767
138.9188
138.4602
138.0008
137.5408
137.0802
136.6192
136.1577
135.6959
135.2339
134.7715
134.3089
133.8462
133.3832
132.9201
132.4569
131.9936
131.5301
131.0666
130.6030
130.1394
129.6757
129.2119
128.7481
128.2843
127.8204
127.3565
126.8926
126.4287
125.9647
125.5007
125.0367
124.5727
124.1087
123.6447
123.1807
122.7166
122.2526
121.7885
121.3245
120.8604
120.3964
119.9323
119.4682
119.0041
118.5401
118.0760
117.6119
117.1478
116.6837
116.2197
115.7556
115.2915
114.8274
114.3633
113.8992
113.4351
112.9710
112.5070
112.0429
111.5788
111.1147
110.6506
110.1865
109.7224
109.2583
108.7942
108.3301
107.8660
107.4020
106.9379
106.4738
106.0097
105.5456
105.0815
104.6174
104.1533
103.6892
103.2251
102.7610
102.2969
101.8328
101.3688
100.9047
100.4406
99.9765
99.5124
99.0483
98.5842
98.1201
97.6560
97.1919
96.7278
96.2637
95.7996
95.3356
94.8715
94.4074
93.9433
93.4792
93.0151
92.5510
92.0869
91.6228
91.1587
90.6946
90.2305
89.7664
89.3023
88.8383
88.3742
87.9101
87.4460
86.9819
86.5178
86.0537
85.5896
85.1255
84.6614
84.1973
83.7332
83.2691
82.8051
82.3410
81.8769
81.4128
80.9487
80.4846
80.0205
79.5564
79.0923
78.6282
78.1641
77.7000
77.2359
76.7718
76.3077
75.8437
75.3796
74.9155
74.4514
73.9873
73.5232
73.0591
72.5950
72.1309
71.6668
71.2027
70.7386
70.2745
69.8104
69.3463
68.8822
68.4181
67.9540
67.4899
67.0258
66.5617
66.0976
65.6335
65.1694
64.7053
64.2412
63.7771
63.3130
62.8489
62.3848
61.9207
61.4566
60.9924
60.5283
60.0642
59.6001
59.1360
58.6719
58.2077
57.7436
57.2795
56.8154
56.3513
55.8871
55.4230
54.9589
54.4948
54.0307
53.5666
53.1024
52.6383
52.1742
51.7101
51.2460
50.7820
50.3179
49.8538
49.3898
48.9258
48.4618
47.9978
47.5338
47.0699
46.6060
46.1421
45.6783
45.2145
44.7508
44.2872
43.8236
43.3600
42.8966
42.4332
41.9700
41.5068
41.0438
40.5809
40.1182
39.6556
39.1932
38.7310
38.2690
37.8072
37.3457
36.8844
36.4234
35.9628
35.5025
35.0425
34.5830
34.1238
33.6652
33.2070
32.7494
32.2923
31.8359
31.3801
30.9250
30.4706
30.0171
29.5644
29.1125
28.6617
28.2118
27.7631
27.3154
26.8690
26.4239
25.9802
25.5379
25.0973
24.6585
24.2218
23.7876
23.3564
22.9295
22.5084
22.0960
21.6974
21.3209
20.9808
20.7018
20.5260
147.4164
147.4164
147.4651
147.5807
147.7721
148.0327
148.3396
148.6607
148.9641
149.2250
149.4268
149.5616
149.6276
149.6271
149.5651
149.4474
149.2806
149.0708
148.8239
148.5450
148.2387
147.9091
147.5595
147.1931
146.8123
146.4193
146.0159
145.6037
145.1839
144.7578
144.3263
143.8901
143.4500
143.0064
142.5600
142.1112
141.6602
141.2074
140.7531
140.2974
139.8406
139.3828
138.9241
138.4648
138.0047
137.5442
137.0832
136.6217
136.1600
135.6979
135.2355
134.7730
134.3102
133.8473
133.3842
132.9210
132.4576
131.9942
131.5307
131.0671
130.6035
130.1398
129.6760
129.2122
128.7484
128.2845
127.8206
127.3567
126.8928
126.4288
125.9648
125.5008
125.0368
124.5728
124.1088
123.6448
123.1807
122.7167
122.2526
121.7886
121.3245
120.8604
120.3964
119.9323
119.4682
119.0042
118.5401
118.0760
117.6119
117.1478
116.6837
116.2197
115.7556
115.2915
114.8274
114.3633
113.8992
113.4351
112.9710
112.5070
112.0429
111.5788
111.1147
110.6506
110.1865
109.7224
109.2583
108.7942
108.3301
107.8660
107.4020
106.9379
106.4738
106.0097
105.5456
105.0815
104.6174
104.1533
103.6892
103.2251
102.7610
102.2969
101.8328
101.3688
100.9047
100.4406
99.9765
99.5124
99.0483
98.5842
98.1201
97.6560
97.1919
96.7278
96.2637
95.7996
95.3356
94.8715
94.4074
93.9433
93.4792
93.0151
92.5510
92.0869
91.6228
91.1587
90.6946
90.2305
89.7664
89.3023
88.8383
88.3742
87.9101
87.4460
86.9819
86.5178
86.0537
85.5896
85.1255
84.6614
84.1973
83.7332
83.2691
82.8051
82.3410
81.8769
81.4128
80.9487
80.4846
80.0205
79.5564
79.0923
78.6282
78.1641
77.7000
77.2359
76.7718
76.3077
75.8437
75.3796
74.9155
74.4514
73.9873
73.5232
73.0591
72.5950
72.1309
71.6668
71.2027
70.7386
70.2745
69.8104
69.3463
68.8822
68.4181
67.9540
67.4899
67.0258
66.5617
66.0976
65.6335
65.1694
64.7053
64.2412
63.7771
63.3130
62.8489
62.3848
61.9207
61.4566
60.9924
60.5283
60.0642
59.6001
59.1360
58.6719
58.2077
57.7436
57.2795
56.8154
56.3513
55.8871
55.4230
54.9589
54.4948
54.0307
53.5666
53.1024
52.6383
52.1742
51.7101
51.2460
50.7820
50.3179
49.8538
49.3898
48.9258
48.4618
47.9978
47.5338
47.0699
46.6060
46.1421
45.6783
45.2145
44.7508
44.2872
43.8236
43.3600
42.8966
42.4332
41.9700
41.5068
41.0438
40.5809
40.1182
39.6556
39.1932
38.7310
38.2690
37.8072
37.3457
36.8844
36.4234
35.9628
35.5025
35.0425
34.5830
34.1238
33.6652
33.2070
32.7494
32.2923
31.8359
31.3801
30.9250
30.4706
30.0171
29.5644
29.1125
28.6617
28.2118
27.7631
27.3154
26.8690
26.4239
25.9802
25.5379
25.0973
24.6585
24.2218
23.7876
23.3564
22.9295
22.5084
22.0960
21.6974
21.3209
20.9808
20.7018
20.5260
148.1930
148.1930
148.2784
148.4792
148.8049
149.2294
149.6928
150.1280
150.4847
150.7366
150.8776
150.9150
150.8619
150.7331
150.5427
150.3028
150.0231
149.7116
149.3745
149.0167
148.6420
148.2533
147.8532
147.4435
147.0258
146.6014
146.1712
145.7363
145.2972
144.8546
144.4091
143.9610
143.5107
143.0586
142.6048
142.1496
141.6933
141.2359
140.7776
140.3185
139.8588
139.3985
138.9377
138.4765
138.0149
137.5530
137.0908
136.6284
136.1657
135.7029
135.2399
134.7767
134.3135
133.8501
133.3866
132.9231
132.4595
131.9958
131.5321
131.0684
130.6045
130.1407
129.6768
129.2129
128.7490
128.2851
127.8211
127.3571
126.8931
126.4291
125.9651
125.5011
125.0370
124.5730
124.1090
123.6449
123.1809
122.7168
122.2527
121.7887
121.3246
120.8605
120.3964
119.9324
119.4683
119.0042
118.5401
118.0760
117.6119
117.1479
116.6838
116.2197
115.7556
115.2915
114.8274
114.3633
113.8992
113.4351
112.9711
112.5070
112.0429
111.5788
111.1147
110.6506
110.1865
109.7224
109.2583
108.7942
108.3301
107.8661
107.4020
106.9379
106.4738
106.0097
105.5456
105.0815
104.6174
104.1533
103.6892
103.2251
102.7610
102.2969
101.8328
101.3688
100.9047
100.4406
99.9765
99.5124
99.0483
98.5842
98.1201
97.6560
97.1919
96.7278
96.2637
95.7996
95.3356
94.8715
94.4074
93.9433
93.4792
93.0151
92.5510
92.0869
91.6228
91.1587
90.6946
90.2305
89.7664
89.3023
88.8383
88.3742
87.9101
87.4460
86.9819
86.5178
86.0537
85.5896
85.1255
84.6614
84.1973
83.7332
83.2691
82.8051
82.3410
81.8769
81.4128
80.9487
80.4846
80.0205
79.5564
79.0923
78.6282
78.1641
77.7000
77.2359
76.7718
76.3077
75.8437
75.3796
74.9155
74.4514
73.9873
73.5232
73.0591
72.5950
72.1309
71.6668
71.2027
70.7386
70.2745
69.8104
69.3463
68.8822
68.4181
67.9540
67.4899
67.0258
66.5617
66.0976
65.6335
65.1694
64.7053
64.2412
63.7771
63.3130
62.8489
62.3848
61.9207
61.4566
60.9924
60.5283
60.0642
59.6001
59.1360
58.6719
58.2077
57.7436
57.2795
56.8154
56.3513
55.8871
55.4230
54.9589
54.4948
54.0307
53.5666
53.1024
52.6383
52.1742
51.7101
51.2460
50.7820
50.3179
49.8538
49.3898
48.9258
48.4618
47.9978
47.5338
47.0699
46.6060
46.1421
45.6783
45.2145
44.7508
44.2872
43.8236
43.3600
42.8966
42.4332
41.9700
41.5068
41.0438
40.5809
40.1182
39.6556
39.1932
38.7310
38.2690
37.8072
37.3457
36.8844
36.4234
35.9628
35.5025
35.0425
34.5830
34.1238
33.6652
33.2070
32.7494
32.2923
31.8359
31.3801
30.9250
30.4706
30.0171
29.5644
29.1125
28.6617
28.2118
27.7631
27.3154
26.8690
26.4239
25.9802
25.5379
25.0973
24.6585
24.2218
23.7876
23.3564
22.9295
22.5084
22.0960
21.6974
21.3209
20.9808
20.7018
20.5260
149.7614
149.7614
149.9398
150.3583
151.0274
151.8619
152.6868
153.3475
153.7658
153.9341
153.8859
153.6703
153.3350
152.9199
152.4549
151.9611
151.4528
150.9390
150.4250
149.9140
149.4074
148.9059
148.4093
147.9174
147.4298
146.9459
146.4652
145.9873
145.5118
145.0382
144.5662
144.0956
143.6261
143.1576
142.6899
142.2228
141.7562
141.2901
140.8243
140.3588
139.8936
139.4286
138.9637
138.4990
138.0344
137.5699
137.1054
136.6410
136.1767
135.7124
135.2482
134.7839
134.3198
133.8556
133.3914
132.9273
132.4631
131.9990
131.5349
131.0708
130.6066
130.1425
129.6784
129.2143
128.7502
128.2861
127.8220
127.3579
126.8938
126.4298
125.9657
125.5016
125.0375
124.5734
124.1093
123.6452
123.1811
122.7170
122.2529
121.7888
121.3247
120.8606
120.3965
119.9325
119.4684
119.0043
118.5402
118.0761
117.6120
117.1479
116.6838
116.2197
115.7556
115.2915
114.8274
114.3634
113.8993
113.4352
112.9711
112.5070
112.0429
111.5788
111.1147
110.6506
110.1865
109.7224
109.2583
108.7942
108.3301
107.8661
107.4020
106.9379
106.4738
106.0097
105.5456
105.0815
104.6174
104.1533
103.6892
103.2251
102.7610
102.2969
101.8329
101.3688
100.9047
100.4406
99.9765
99.5124
99.0483
98.5842
98.1201
97.6560
97.1919
96.7278
96.2637
95.7996
95.3356
94.8715
94.4074
93.9433
93.4792
93.0151
92.5510
92.0869
91.6228
91.1587
90.6946
90.2305
89.7664
89.3023
88.8383
88.3742
87.9101
87.4460
86.9819
86.5178
86.0537
85.5896
85.1255
84.6614
84.1973
83.7332
83.2691
82.8051
82.3410
81.8769
81.4128
80.9487
80.4846
80.0205
79.5564
79.0923
78.6282
78.1641
77.7000
77.2359
76.7718
76.3077
75.8437
75.3796
74.9155
74.4514
73.9873
73.5232
73.0591
72.5950
72.1309
71.6668
71.2027
70.7386
70.2745
69.8104
69.3463
68.8822
68.4181
67.9540
67.4899
67.0258
66.5617
66.0976
65.6335
65.1694
64.7053
64.2412
63.7771
63.3130
62.8489
62.3848
61.9207
61.4566
60.9924
60.5283
60.0642
59.6001
59.1360
58.6719
58.2077
57.7436
57.2795
56.8154
56.3513
55.8871
55.4230
54.9589
54.4948
54.0307
53.5666
53.1024
52.6383
52.1742
51.7101
51.2460
50.7820
50.3179
49.8538
49.3898
48.9258
48.4618
47.9978
47.5338
47.0699
46.6060
46.1421
45.6783
45.2145
44.7508
44.2872
43.8236
43.3600
42.8966
42.4332
41.9700
41.5068
41.0438
40.5809
40.1182
39.6556
39.1932
38.7310
38.2690
37.8072
37.3457
36.8844
36.4234
35.9628
35.5025
35.0425
34.5830
34.1238
33.6652
33.2070
32.7494
32.2923
31.8359
31.3801
30.9250
30.4706
30.0171
29.5644
29.1125
28.6617
28.2118
27.7631
27.3154
26.8690
26.4239
25.9802
25.5379
25.0973
24.6585
24.2218
23.7876
23.3564
22.9295
22.5084
22.0960
21.6974
21.3209
20.9808
20.7018
20.5260
152.5888
152.5888
152.9901
153.9395
155.4577
157.2835
158.8736
159.8812
160.2410
160.0560
159.4831
158.6694
157.7280
156.7374
155.7471
154.7857
153.8677
152.9991
152.1801
151.4082
150.6791
149.9883
149.3309
148.7025
148.0991
147.5168
146.9527
146.4038
145.8680
145.3431
144.8274
144.3196
143.8184
143.3228
142.8319
142.3450
141.8615
141.3808
140.9026
140.4264
139.9520
139.4791
139.0074
138.5368
138.0671
137.5983
137.1301
136.6624
136.1953
135.7286
135.2622
134.7962
134.3304
133.8648
133.3995
132.9343
132.4693
132.0043
131.5395
131.0748
130.6102
130.1456
129.6812
129.2167
128.7523
128.2880
127.8236
127.3593
126.8951
126.4308
125.9666
125.5024
125.0382
124.5740
124.1098
123.6457
123.1815
122.7174
122.2532
121.7891
121.3250
120.8609
120.3967
119.9326
119.4685
119.0044
118.5403
118.0762
117.6121
117.1480
116.6839
116.2198
115.7557
115.2916
114.8275
114.3634
113.8993
113.4352
112.9711
112.5070
112.0429
111.5788
111.1147
110.6506
110.1865
109.7224
109.2583
108.7942
108.3302
107.8661
107.4020
106.9379
106.4738
106.0097
105.5456
105.0815
104.6174
104.1533
103.6892
103.2251
102.7610
102.2969
101.8329
101.3688
100.9047
100.4406
99.9765
99.5124
99.0483
98.5842
98.1201
97.6560
97.1919
96.7278
96.2637
95.7996
95.3356
94.8715
94.4074
93.9433
93.4792
93.0151
92.5510
92.0869
91.6228
91.1587
90.6946
90.2305
89.7664
89.3023
88.8383
88.3742
87.9101
87.4460
86.9819
86.5178
86.0537
85.5896
85.1255
84.6614
84.1973
83.7332
83.2691
82.8051
82.3410
81.8769
81.4128
80.9487
80.4846
80.0205
79.5564
79.0923
78.6282
78.1641
77.7000
77.2359
76.7718
76.3077
75.8437
75.3796
74.9155
74.4514
73.9873
73.5232
73.0591
72.5950
72.1309
71.6668
71.2027
70.7386
70.2745
69.8104
69.3463
68.8822
68.4181
67.9540
67.4899
67.0258
66.5617
66.0976
65.6335
65.1694
64.7053
64.2412
63.7771
63.3130
62.8489
62.3848
61.9207
61.4566
60.9924
60.5283
60.0642
59.6001
59.1360
58.6719
58.2077
57.7436
57.2795
56.8154
56.3513
55.8871
55.4230
54.9589
54.4948
54.0307
53.5666
53.1024
52.6383
52.1742
51.7101
51.2460
50.7820
50.3179
49.8538
49.3898
48.9258
48.4618
47.9978
47.5338
47.0699
46.6060
46.1421
45.6783
45.2145
44.7508
44.2872
43.8236
43.3600
42.8966
42.4332
41.9700
41.5068
41.0438
40.5809
40.1182
39.6556
39.1932
38.7310
38.2690
37.8072
37.3457
36.8844
36.4234
35.9628
35.5025
35.0425
34.5830
34.1238
33.6652
33.2070
32.7494
32.2923
31.8359
31.3801
30.9250
30.4706
30.0171
29.5644
29.1125
28.6617
28.2118
27.7631
27.3154
26.8690
26.4239
25.9802
25.5379
25.0973
24.6585
24.2218
23.7876
23.3564
22.9295
22.5084
22.0960
21.6974
21.3209
20.9808
20.7018
20.5260
157.3421
157.3421
158.2614
160.4839
164.1145
168.3937
171.4701
172.7236
172.4221
171.0918
169.2022
167.0835
164.9391
162.8819
160.9663
159.2122
157.6202
156.1803
154.8783
153.6983
152.6245
151.6423
150.7386
149.9018
149.1218
148.3898
147.6987
147.0419
146.4143
145.8113
145.2291
144.6645
144.1148
143.5778
143.0514
142.5341
142.0246
141.5216
141.0241
140.5315
140.0429
139.5577
139.0755
138.5958
138.1183
137.6427
137.1686
136.6959
136.2244
135.7539
135.2843
134.8154
134.3471
133.8794
133.4122
132.9454
132.4789
132.0128
131.5469
131.0813
130.6158
130.1506
129.6855
129.2205
128.7556
128.2908
127.8262
127.3616
126.8970
126.4325
125.9681
125.5037
125.0393
124.5750
124.1107
123.6465
123.1822
122.7180
122.2538
121.7896
121.3254
120.8612
120.3971
119.9329
119.4688
119.0046
118.5405
118.0764
117.6122
117.1481
116.6840
116.2199
115.7558
115.2917
114.8276
114.3634
113.8993
113.4352
112.9711
112.5070
112.0429
111.5788
111.1147
110.6506
110.1865
109.7225
109.2584
108.7943
108.3302
107.8661
107.4020
106.9379
106.4738
106.0097
105.5456
105.0815
104.6174
104.1533
103.6892
103.2251
102.7610
102.2969
101.8329
101.3688
100.9047
100.4406
99.9765
99.5124
99.0483
98.5842
98.1201
97.6560
97.1919
96.7278
96.2637
95.7996
95.3356
94.8715
94.4074
93.9433
93.4792
93.0151
92.5510
92.0869
91.6228
91.1587
90.6946
90.2305
89.7664
89.3023
88.8383
88.3742
87.9101
87.4460
86.9819
86.5178
86.0537
85.5896
85.1255
84.6614
84.1973
83.7332
83.2691
82.8051
82.3410
81.8769
81.4128
80.9487
80.4846
80.0205
79.5564
79.0923
78.6282
78.1641
77.7000
77.2359
76.7718
76.3077
75.8437
75.3796
74.9155
74.4514
73.9873
73.5232
73.0591
72.5950
72.1309
71.6668
71.2027
70.7386
70.2745
69.8104
69.3463
68.8822
68.4181
67.9540
67.4899
67.0258
66.5617
66.0976
65.6335
65.1694
64.7053
64.2412
63.7771
63.3130
62.8489
62.3848
61.9207
61.4566
60.9924
60.5283
60.0642
59.6001
59.1360
58.6719
58.2077
57.7436
57.2795
56.8154
56.3513
55.8871
55.4230
54.9589
54.4948
54.0307
53.5666
53.1024
52.6383
52.1742
51.7101
51.2460
50.7820
50.3179
49.8538
49.3898
48.9258
48.4618
47.9978
47.5338
47.0699
46.6060
46.1421
45.6783
45.2145
44.7508
44.2872
43.8236
43.3600
42.8966
42.4332
41.9700
41.5068
41.0438
40.5809
40.1182
39.6556
39.1932
38.7310
38.2690
37.8072
37.3457
36.8844
36.4234
35.9628
35.5025
35.0425
34.5830
34.1238
33.6652
33.2070
32.7494
32.2923
31.8359
31.3801
30.9250
30.4706
30.0171
29.5644
29.1125
28.6617
28.2118
27.7631
27.3154
26.8690
26.4239
25.9802
25.5379
25.0973
24.6585
24.2218
23.7876
23.3564
22.9295
22.5084
22.0960
21.6974
21.3209
20.9808
20.7018
20.5260
164.8653
164.8653
166.9353
172.1472
181.1393
191.9167
197.3000
197.4163
194.3605
189.8780
185.0149
180.3030
175.9741
172.1029
168.6880
165.6948
163.0761
160.7832
158.7700
156.9952
155.4227
154.0211
152.7640
151.6287
150.5961
149.6501
148.7772
147.9659
147.2068
146.4916
145.8137
145.1673
144.5477
143.9507
143.3730
142.8117
142.2643
141.7287
141.2033
140.6866
140.1772
139.6741
139.1765
138.6835
138.1944
137.7088
137.2261
136.7459
136.2679
135.7918
135.3172
134.8441
134.3722
133.9013
133.4312
132.9620
132.4935
132.0255
131.5580
131.0910
130.6243
130.1580
129.6920
129.2262
128.7606
128.2952
127.8300
127.3649
126.9000
126.4351
125.9704
125.5057
125.0411
124.5766
124.1121
123.6476
123.1833
122.7189
122.2546
121.7903
121.3260
120.8618
120.3975
119.9333
119.4691
119.0050
118.5408
118.0766
117.6125
117.1483
116.6842
116.2200
115.7559
115.2918
114.8277
114.3635
113.8994
113.4353
112.9712
112.5071
112.0430
111.5789
111.1148
110.6507
110.1866
109.7225
109.2584
108.7943
108.3302
107.8661
107.4020
106.9379
106.4738
106.0097
105.5456
105.0815
104.6174
104.1533
103.6892
103.2251
102.7610
102.2970
101.8329
101.3688
100.9047
100.4406
99.9765
99.5124
99.0483
98.5842
98.1201
97.6560
97.1919
96.7278
96.2637
95.7996
95.3356
94.8715
94.4074
93.9433
93.4792
93.0151
92.5510
92.0869
91.6228
91.1587
90.6946
90.2305
89.7664
89.3023
88.8383
88.3742
87.9101
87.4460
86.9819
86.5178
86.0537
85.5896
85.1255
84.6614
84.1973
83.7332
83.2691
82.8051
82.3410
81.8769
81.4128
80.9487
80.4846
80.0205
79.5564
79.0923
78.6282
78.1641
77.7000
77.2359
76.7718
76.3077
75.8437
75.3796
74.9155
74.4514
73.9873
73.5232
73.0591
72.5950
72.1309
71.6668
71.2027
70.7386
70.2745
69.8104
69.3463
68.8822
68.4181
67.9540
67.4899
67.0258
66.5617
66.0976
65.6335
65.1694
64.7053
64.2412
63.7771
63.3130
62.8489
62.3848
61.9207
61.4566
60.9924
60.5283
60.0642
59.6001
59.1360
58.6719
58.2077
57.7436
57.2795
56.8154
56.3513
55.8871
55.4230
54.9589
54.4948
54.0307
53.5666
53.1024
52.6383
52.1742
51.7101
51.2460
50.7820
50.3179
49.8538
49.3898
48.9258
48.4618
47.9978
47.5338
47.0699
46.6060
46.1421
45.6783
45.2145
44.7508
44.2872
43.8236
43.3600
42.8966
42.4332
41.9700
41.5068
41.0438
40.5809
40.1182
39.6556
39.1932
38.7310
38.2690