# vtk DataFile Version 5.0
Example 3D regular grid VTK file.
ASCII
DATASET UNSTRUCTURED_GRID
POINTS 90601 float
0 0 0
0 10 0
0 20 0
0 30 0
0 40 0
0 50 0
0 60 0
0 70 0
0 80 0
0 90 0
0 100 0
0 110 0
0 120 0
0 130 0
0 140 0
0 150 0
0 160 0
0 170 0
0 180 0
0 190 0
0 200 0
0 210 0
0 220 0
0 230 0
0 240 0
0 250 0
0 260 0
0 270 0
0 280 0
0 290 0
0 300 0
0 310 0
0 320 0
0 330 0
0 340 0
0 350 0
0 360 0
0 370 0
0 380 0
0 390 0
0 400 0
0 410 0
0 420 0
0 430 0
0 440 0
0 450 0
0 460 0
0 470 0
0 480 0
0 490 0
0 500 0
0 510 0
0 520 0
0 530 0
0 540 0
0 550 0
0 560 0
0 570 0
0 580 0
0 590 0
0 600 0
0 610 0
0 620 0
0 630 0
0 640 0
0 650 0
0 660 0
0 670 0
0 680 0
0 690 0
0 700 0
0 710 0
0 720 0
0 730 0
0 740 0
0 750 0
0 760 0
0 770 0
0 780 0
0 790 0
0 800 0
0 810 0
0 820 0
0 830 0
0 840 0
0 850 0
0 860 0
0 870 0
0 880 0
0 890 0
0 900 0
0 910 0
0 920 0
0 930 0
0 940 0
0 950 0
0 960 0
0 970 0
0 980 0
0 990 0
0 1000 0
0 1010 0
0 1020 0
0 1030 0
0 1040 0
0 1050 0
0 1060 0
0 1070 0
0 1080 0
0 1090 0
0 1100 0
0 1110 0
0 1120 0
0 1130 0
0 1140 0
0 1150 0
0 1160 0
0 1170 0
0 1180 0
0 1190 0
0 1200 0
0 1210 0
0 1220 0
0 1230 0
0 1240 0
0 1250 0
0 1260 0
0 1270 0
0 1280 0
0 1290 0
0 1300 0
0 1310 0
0 1320 0
0 1330 0
0 1340 0
0 1350 0
0 1360 0
0 1370 0
0 1380 0
0 1390 0
0 1400 0
0 1410 0
0 1420 0
0 1430 0
0 1440 0
0 1450 0
0 1460 0
0 1470 0
0 1480 0
0 1490 0
0 1500 0
0 1510 0
0 1520 0
0 1530 0
0 1540 0
0 1550 0
0 1560 0
0 1570 0
0 1580 0
0 1590 0
0 1600 0
0 1610 0
0 1620 0
0 1630 0
0 1640 0
0 1650 0
0 1660 0
0 1670 0
0 1680 0
0 1690 0
0 1700 0
0 1710 0
0 1720 0
0 1730 0
0 1740 0
0 1750 0
0 1760 0
0 1770 0
0 1780 0
0 1790 0
0 1800 0
0 1810 0
0 1820 0
0 1830 0
0 1840 0
0 1850 0
0 1860 0
0 1870 0
0 1880 0
0 1890 0
0 1900 0
0 1910 0
0 1920 0
0 1930 0
0 1940 0
0 1950 0
0 1960 0
0 1970 0
0 1980 0
0 1990 0
0 2000 0
0 2010 0
0 2020 0
0 2030 0
0 2040 0
0 2050 0
0 2060 0
0 2070 0
0 2080 0
0 2090 0
0 2100 0
0 2110 0
0 2120 0
0 2130 0
0 2140 0
0 2150 0
0 2160 0
0 2170 0
0 2180 0
0 2190 0
0 2200 0
0 2210 0
0 2220 0
0 2230 0
0 2240 0
0 2250 0
0 2260 0
0 2270 0
0 2280 0
0 2290 0
0 2300 0
0 2310 0
0 2320 0
0 2330 0
0 2340 0
0 2350 0
0 2360 0
0 2370 0
0 2380 0
0 2390 0
0 2400 0
0 2410 0
0 2420 0
0 2430 0
0 2440 0
0 2450 0
0 2460 0
0 2470 0
0 2480 0
0 2490 0
0 2500 0
0 2510 0
0 2520 0
0 2530 0
0 2540 0
0 2550 0
0 2560 0
0 2570 0
0 2580 0
0 2590 0
0 2600 0
0 2610 0
0 2620 0
0 2630 0
0 2640 0
0 2650 0
0 2660 0
0 2670 0
0 2680 0
0 2690 0
0 2700 0
0 2710 0
0 2720 0
0 2730 0
0 2740 0
0 2750 0
0 2760 0
0 2770 0
0 2780 0
0 2790 0
0 2800 0
0 2810 0
0 2820 0
0 2830 0
0 2840 0
0 2850 0
0 2860 0
0 2870 0
0 2880 0
0 2890 0
0 2900 0
0 2910 0
0 2920 0
0 2930 0
0 2940 0
0 2950 0
0 2960 0
0 2970 0
0 2980 0
0 2990 0
0 3000 0
10 0 0
10 10 0
10 20 0
10 30 0
10 40 0
10 50 0
10 60 0
10 70 0
10 80 0
10 90 0
10 100 0
10 110 0
10 120 0
10 130 0
10 140 0
10 150 0
10 160 0
10 170 0
10 180 0
10 190 0
10 200 0
10 210 0
10 220 0
10 230 0
10 240 0
10 250 0
10 260 0
10 270 0
10 280 0
10 290 0
10 300 0
10 310 0
10 320 0
10 330 0
10 340 0
10 350 0
10 360 0
10 370 0
10 380 0
10 390 0
10 400 0
10 410 0
10 420 0
10 430 0
10 440 0
10 450 0
10 460 0
10 470 0
10 480 0
10 490 0
10 500 0
10 510 0
10 520 0
10 530 0
10 540 0
10 550 0
10 560 0
10 570 0
10 580 0
10 590 0
10 600 0
10 610 0
10 620 0
10 630 0
10 640 0
10 650 0
10 660 0
10 670 0
10 680 0
10 690 0
10 700 0
10 710 0
10 720 0
10 730 0
10 740 0
10 750 0
10 760 0
10 770 0
10 780 0
10 790 0
10 800 0
10 810 0
10 820 0
10 830 0
10 840 0
10 850 0
10 860 0
10 870 0
10 880 0
10 890 0
10 900 0
10 910 0
10 920 0
10 930 0
10 940 0
10 950 0
10 960 0
10 970 0
10 980 0
10 990 0
10 1000 0
10 1010 0
10 1020 0
10 1030 0
10 1040 0
10 1050 0
10 1060 0
10 1070 0
10 1080 0
10 1090 0
10 1100 0
10 1110 0
10 1120 0
10 1130 0
10 1140 0
10 1150 0
10 1160 0
10 1170 0
10 1180 0
10 1190 0
10 1200 0
10 1210 0
10 1220 0
10 1230 0
10 1240 0
10 1250 0
10 1260 0
10 1270 0
10 1280 0
10 1290 0
10 1300 0
10 1310 0
10 1320 0
10 1330 0
10 1340 0
10 1350 0
10 1360 0
10 1370 0
10 1380 0
10 1390 0
10 1400 0
10 1410 0
10 1420 0
10 1430 0
10 1440 0
10 1450 0
10 1460 0
10 1470 0
10 1480 0
10 1490 0
10 1500 0
10 1510 0
10 1520 0
10 1530 0
10 1540 0
10 1550 0
10 1560 0
10 1570 0
10 1580 0
10 1590 0
10 1600 0
10 1610 0
10 1620 0
10 1630 0
10 1640 0
10 1650 0
10 1660 0
10 1670 0
10 1680 0
10 1690 0
10 1700 0
10 1710 0
10 1720 0
10 1730 0
10 1740 0
10 1750 0
10 1760 0
10 1770 0
10 1780 0
10 1790 0
10 1800 0
10 1810 0
10 1820 0
10 1830 0
10 1840 0
10 1850 0
10 1860 0
10 1870 0
10 1880 0
10 1890 0
10 1900 0
10 1910 0
10 1920 0
10 1930 0
10 1940 0
10 1950 0
10 1960 0
10 1970 0
10 1980 0
10 1990 0
10 2000 0
10 2010 0
10 2020 0
10 2030 0
10 2040 0
10 2050 0
10 2060 0
10 2070 0
10 2080 0
10 2090 0
10 2100 0
10 2110 0
10 2120 0
10 2130 0
10 2140 0
10 2150 0
10 2160 0
10 2170 0
10 2180 0
10 2190 0
10 2200 0
10 2210 0
10 2220 0
10 2230 0
10 2240 0
10 2250 0
10 2260 0
10 2270 0
10 2280 0
10 2290 0
10 2300 0
10 2310 0
10 2320 0
10 2330 0
10 2340 0
10 2350 0
10 2360 0
10 2370 0
10 2380 0
10 2390 0
10 2400 0
10 2410 0
10 2420 0
10 2430 0
10 2440 0
10 2450 0
10 2460 0
10 2470 0
10 2480 0
10 2490 0
10 2500 0
10 2510 0
10 2520 0
10 2530 0
10 2540 0
10 2550 0
10 2560 0
10 2570 0
10 2580 0
10 2590 0
10 2600 0
10 2610 0
10 2620 0
10 2630 0
10 2640 0
10 2650 0
10 2660 0
10 2670 0
10 2680 0
10 2690 0
10 2700 0
10 2710 0
10 2720 0
10 2730 0
10 2740 0
10 2750 0
10 2760 0
10 2770 0
10 2780 0
10 2790 0
10 2800 0
10 2810 0
10 2820 0
10 2830 0
10 2840 0
10 2850 0
10 2860 0
10 2870 0
10 2880 0
10 2890 0
10 2900 0
10 2910 0
10 2920 0
10 2930 0
10 2940 0
10 2950 0
10 2960 0
10 2970 0
10 2980 0
10 2990 0
10 3000 0
20 0 0
20 10 0
20 20 0
20 30 0
20 40 0
20 50 0
20 60 0
20 70 0
20 80 0
20 90 0
20 100 0
20 110 0
20 120 0
20 130 0
20 140 0
20 150 0
20 160 0
20 170 0
20 180 0
20 190 0
20 200 0
20 210 0
20 220 0
20 230 0
20 240 0
20 250 0
20 260 0
20 270 0
20 280 0
20 290 0
20 300 0
20 310 0
20 320 0
20 330 0
20 340 0
20 350 0
20 360 0
20 370 0
20 380 0
20 390 0
20 400 0
20 410 0
20 420 0
20 430 0
20 440 0
20 450 0
20 460 0
20 470 0
20 480 0
20 490 0
20 500 0
20 510 0
20 520 0
20 530 0
20 540 0
20 550 0
20 560 0
20 570 0
20 580 0
20 590 0
20 600 0
20 610 0
20 620 0
20 630 0
20 640 0
20 650 0
20 660 0
20 670 0
20 680 0
20 690 0
20 700 0
20 710 0
20 720 0
20 730 0
20 740 0
20 750 0
20 760 0
20 770 0
20 780 0
20 790 0
20 800 0
20 810 0
20 820 0
20 830 0
20 840 0
20 850 0
20 860 0
20 870 0
20 880 0
20 890 0
20 900 0
20 910 0
20 920 0
20 930 0
20 940 0
20 950 0
20 960 0
20 970 0
20 980 0
20 990 0
20 1000 0
20 1010 0
20 1020 0
20 1030 0
20 1040 0
20 1050 0
20 1060 0
20 1070 0
20 1080 0
20 1090 0
20 1100 0
20 1110 0
20 1120 0
20 1130 0
20 1140 0
20 1150 0
20 1160 0
20 1170 0
20 1180 0
20 1190 0
20 1200 0
20 1210 0
20 1220 0
20 1230 0
20 1240 0
20 1250 0
20 1260 0
20 1270 0
20 1280 0
20 1290 0
20 1300 0
20 1310 0
20 1320 0
20 1330 0
20 1340 0
20 1350 0
20 1360 0
20 1370 0
20 1380 0
20 1390 0
20 1400 0
20 1410 0
20 1420 0
20 1430 0
20 1440 0
20 1450 0
20 1460 0
20 1470 0
20 1480 0
20 1490 0
20 1500 0
20 1510 0
20 1520 0
20 1530 0
20 1540 0
20 1550 0
20 1560 0
20 1570 0
20 1580 0
20 1590 0
20 1600 0
20 1610 0
20 1620 0
20 1630 0
20 1640 0
20 1650 0
20 1660 0
20 1670 0
20 1680 0
20 1690 0
20 1700 0
20 1710 0
20 1720 0
20 1730 0
20 1740 0
20 1750 0
20 1760 0
20 1770 0
20 1780 0
20 1790 0
20 1800 0
20 1810 0
20 1820 0
20 1830 0
20 1840 0
20 1850 0
20 1860 0
20 1870 0
20 1880 0
20 1890 0
20 1900 0
20 1910 0
20 1920 0
20 1930 0
20 1940 0
20 1950 0
20 1960 0
20 1970 0
20 1980 0
20 1990 0
20 2000 0
20 2010 0
20 2020 0
20 2030 0
20 2040 0
20 2050 0
20 2060 0
20 2070 0
20 2080 0
20 2090 0
20 2100 0
20 2110 0
20 2120 0
20 2130 0
20 2140 0
20 2150 0
20 2160 0
20 2170 0
20 2180 0
20 2190 0
20 2200 0
20 2210 0
20 2220 0
20 2230 0
20 2240 0
20 2250 0
20 2260 0
20 2270 0
20 2280 0
20 2290 0
20 2300 0
20 2310 0
20 2320 0
20 2330 0
20 2340 0
20 2350 0
20 2360 0
20 2370 0
20 2380 0
20 2390 0
20 2400 0
20 2410 0
20 2420 0
20 2430 0
20 2440 0
20 2450 0
20 2460 0
20 2470 0
20 2480 0
20 2490 0
20 2500 0
20 2510 0
20 2520 0
20 2530 0
20 2540 0
20 2550 0
20 2560 0
20 2570 0
20 2580 0
20 2590 0
20 2600 0
20 2610 0
20 2620 0
20 2630 0
20 2640 0
20 2650 0
20 2660 0
20 2670 0
20 2680 0
20 2690 0
20 2700 0
20 2710 0
20 2720 0
20 2730 0
20 2740 0
20 2750 0
20 2760 0
20 2770 0
20 2780 0
20 2790 0
20 2800 0
20 2810 0
20 2820 0
20 2830 0
20 2840 0
20 2850 0
20 2860 0
20 2870 0
20 2880 0
20 2890 0
20 2900 0
20 2910 0
20 2920 0
20 2930 0
20 2940 0
20 2950 0
20 2960 0
20 2970 0
20 2980 0
20 2990 0
20 3000 0
30 0 0
30 10 0
30 20 0
30 30 0
30 40 0
30 50 0
30 60 0
30 70 0
30 80 0
30 90 0
30 100 0
30 110 0
30 120 0
30 130 0
30 140 0
30 150 0
30 160 0
30 170 0
30 180 0
30 190 0
30 200 0
30 210 0
30 220 0
30 230 0
30 240 0
30 250 0
30 260 0
30 270 0
30 280 0
30 290 0
30 300 0
30 310 0
30 320 0
30 330 0
30 340 0
30 350 0
30 360 0
30 370 0
30 380 0
30 390 0
30 400 0
30 410 0
30 420 0
30 430 0
30 440 0
30 450 0
30 460 0
30 470 0
30 480 0
30 490 0
30 500 0
30 510 0
30 520 0
30 530 0
30 540 0
30 550 0
30 560 0
30 570 0
30 580 0
30 590 0
30 600 0
30 610 0
30 620 0
30 630 0
30 640 0
30 650 0
30 660 0
30 670 0
30 680 0
30 690 0
30 700 0
30 710 0
30 720 0
30 730 0
30 740 0
30 750 0
30 760 0
30 770 0
30 780 0
30 790 0
30 800 0
30 810 0
30 820 0
30 830 0
30 840 0
30 850 0
30 860 0
30 870 0
30 880 0
30 890 0
30 900 0
30 910 0
30 920 0
30 930 0
30 940 0
30 950 0
30 960 0
30 970 0
30 980 0
30 990 0
30 1000 0
30 1010 0
30 1020 0
30 1030 0
30 1040 0
30 1050 0
30 1060 0
30 1070 0
30 1080 0
30 1090 0
30 1100 0
30 1110 0
30 1120 0
30 1130 0
30 1140 0
30 1150 0
30 1160 0
30 1170 0
30 1180 0
30 1190 0
30 1200 0
30 1210 0
30 1220 0
30 1230 0
30 1240 0
30 1250 0
30 1260 0
30 1270 0
30 1280 0
30 1290 0
30 1300 0
30 1310 0
30 1320 0
30 1330 0
30 1340 0
30 1350 0
30 1360 0
30 1370 0
30 1380 0
30 1390 0
30 1400 0
30 1410 0
30 1420 0
30 1430 0
30 1440 0
30 1450 0
30 1460 0
30 1470 0
30 1480 0
30 1490 0
30 1500 0
30 1510 0
30 1520 0
30 1530 0
30 1540 0
30 1550 0
30 1560 0
30 1570 0
30 1580 0
30 1590 0
[...]
POINT_DATA 90601
SCALARS P float
LOOKUP_TABLE default
151.8364
151.8364
151.8734
151.9614
152.1094
152.3161
152.5693
152.8479
153.1276
153.3856
153.6034
153.7686
153.8744
153.9187
153.9027
153.8300
153.7053
153.5339
153.3213
153.0727
152.7928
152.4861
152.1562
151.8066
151.4402
151.0595
150.6665
150.2632
149.8510
149.4313
149.0052
148.5737
148.1376
147.6974
147.2539
146.8075
146.3586
145.9076
145.4548
145.0005
144.5448
144.0880
143.6302
143.1715
142.7121
142.2521
141.7915
141.3305
140.8690
140.4073
139.9452
139.4828
139.0202
138.5575
138.0945
137.6314
137.1682
136.7049
136.2414
135.7779
135.3143
134.8507
134.3870
133.9232
133.4594
132.9956
132.5317
132.0678
131.6039
131.1400
130.6760
130.2120
129.7480
129.2840
128.8200
128.3560
127.8920
127.4279
126.9639
126.4998
126.0358
125.5717
125.1077
124.6436
124.1795
123.7154
123.2514
122.7873
122.3232
121.8591
121.3950
120.9310
120.4669
120.0028
119.5387
119.0746
118.6105
118.1464
117.6824
117.2183
116.7542
116.2901
115.8260
115.3619
114.8978
114.4337
113.9696
113.5055
113.0414
112.5774
112.1133
111.6492
111.1851
110.7210
110.2569
109.7928
109.3287
108.8646
108.4005
107.9364
107.4723
107.0082
106.5442
106.0801
105.6160
105.1519
104.6878
104.2237
103.7596
103.2955
102.8314
102.3673
101.9032
101.4391
100.9750
100.5110
100.0469
99.5828
99.1187
98.6546
98.1905
97.7264
97.2623
96.7982
96.3341
95.8700
95.4059
94.9418
94.4777
94.0137
93.5496
93.0855
92.6214
92.1573
91.6932
91.2291
90.7650
90.3009
89.8368
89.3727
88.9086
88.4445
87.9805
87.5164
87.0523
86.5882
86.1241
85.6600
85.1959
84.7318
84.2677
83.8036
83.3395
82.8754
82.4113
81.9472
81.4832
81.0191
80.5550
80.0909
79.6268
79.1627
78.6986
78.2345
77.7704
77.3063
76.8422
76.3781
75.9140
75.4499
74.9858
74.5217
74.0577
73.5936
73.1295
72.6654
72.2013
71.7372
71.2731
70.8090
70.3449
69.8808
69.4167
68.9526
68.4885
68.0244
67.5603
67.0962
66.6321
66.1680
65.7039
65.2398
64.7757
64.3116
63.8475
63.3834
62.9193
62.4551
61.9910
61.5269
61.0628
60.5987
60.1346
59.6705
59.2064
58.7422
58.2781
57.8140
57.3499
56.8858
56.4217
55.9575
55.4934
55.0293
54.5652
54.1011
53.6370
53.1729
52.7088
52.2448
51.7807
51.3166
50.8526
50.3885
49.9245
49.4605
48.9966
48.5326
48.0687
47.6048
47.1409
46.6771
46.2133
45.7496
45.2859
44.8223
44.3588
43.8953
43.4320
42.9687
42.5055
42.0424
41.5795
41.1167
40.6540
40.1916
39.7292
39.2671
38.8052
38.3435
37.8821
37.4209
36.9601
36.4995
36.0393
35.5795
35.1200
34.6610
34.2025
33.7444
33.2869
32.8299
32.3735
31.9178
31.4628
31.0086
30.5552
30.1027
29.6512
29.2010
28.7522
28.3053
27.8609
27.4201
26.9847
26.5577
26.1443
25.7533
25.3998
25.1095
24.9266
151.8364
151.8364
151.8734
151.9614
152.1094
152.3161
152.5693
152.8479
153.1276
153.3856
153.6034
153.7686
153.8744
153.9187
153.9027
153.8300
153.7053
153.5339
153.3213
153.0727
152.7928
152.4861
152.1562
151.8066
151.4402
151.0595
150.6665
150.2632
149.8510
149.4313
149.0052
148.5737
148.1376
147.6974
147.2539
146.8075
146.3586
145.9076
145.4548
145.0005
144.5448
144.0880
143.6302
143.1715
142.7121
142.2521
141.7915
141.3305
140.8690
140.4073
139.9452
139.4828
139.0202
138.5575
138.0945
137.6314
137.1682
136.7049
136.2414
135.7779
135.3143
134.8507
134.3870
133.9232
133.4594
132.9956
132.5317
132.0678
131.6039
131.1400
130.6760
130.2120
129.7480
129.2840
128.8200
128.3560
127.8920
127.4279
126.9639
126.4998
126.0358
125.5717
125.1077
124.6436
124.1795
123.7154
123.2514
122.7873
122.3232
121.8591
121.3950
120.9310
120.4669
120.0028
119.5387
119.0746
118.6105
118.1464
117.6824
117.2183
116.7542
116.2901
115.8260
115.3619
114.8978
114.4337
113.9696
113.5055
113.0414
112.5774
112.1133
111.6492
111.1851
110.7210
110.2569
109.7928
109.3287
108.8646
108.4005
107.9364
107.4723
107.0082
106.5442
106.0801
105.6160
105.1519
104.6878
104.2237
103.7596
103.2955
102.8314
102.3673
101.9032
101.4391
100.9750
100.5110
100.0469
99.5828
99.1187
98.6546
98.1905
97.7264
97.2623
96.7982
96.3341
95.8700
95.4059
94.9418
94.4777
94.0137
93.5496
93.0855
92.6214
92.1573
91.6932
91.2291
90.7650
90.3009
89.8368
89.3727
88.9086
88.4445
87.9805
87.5164
87.0523
86.5882
86.1241
85.6600
85.1959
84.7318
84.2677
83.8036
83.3395
82.8754
82.4113
81.9472
81.4832
81.0191
80.5550
80.0909
79.6268
79.1627
78.6986
78.2345
77.7704
77.3063
76.8422
76.3781
75.9140
75.4499
74.9858
74.5217
74.0577
73.5936
73.1295
72.6654
72.2013
71.7372
71.2731
70.8090
70.3449
69.8808
69.4167
68.9526
68.4885
68.0244
67.5603
67.0962
66.6321
66.1680
65.7039
65.2398
64.7757
64.3116
63.8475
63.3834
62.9193
62.4551
61.9910
61.5269
61.0628
60.5987
60.1346
59.6705
59.2064
58.7422
58.2781
57.8140
57.3499
56.8858
56.4217
55.9575
55.4934
55.0293
54.5652
54.1011
53.6370
53.1729
52.7088
52.2448
51.7807
51.3166
50.8526
50.3885
49.9245
49.4605
48.9966
48.5326
48.0687
47.6048
47.1409
46.6771
46.2133
45.7496
45.2859
44.8223
44.3588
43.8953
43.4320
42.9687
42.5055
42.0424
41.5795
41.1167
40.6540
40.1916
39.7292
39.2671
38.8052
38.3435
37.8821
37.4209
36.9601
36.4995
36.0393
35.5795
35.1200
34.6610
34.2025
33.7444
33.2869
32.8299
32.3735
31.9178
31.4628
31.0086
30.5552
30.1027
29.6512
29.2010
28.7522
28.3053
27.8609
27.4201
26.9847
26.5577
26.1443
25.7533
25.3998
25.1095
24.9266
152.1277
152.1277
152.1764
152.2920
152.4834
152.7440
153.0509
153.3720
153.6754
153.9363
154.1381
154.2729
154.3389
154.3384
154.2764
154.1587
153.9919
153.7822
153.5352
153.2563
152.9500
152.6204
152.2709
151.9044
151.5236
151.1306
150.7272
150.3150
149.8952
149.4691
149.0376
148.6014
148.1613
147.7177
147.2713
146.8225
146.3715
145.9187
145.4644
145.0087
144.5519
144.0941
143.6354
143.1761
142.7160
142.2555
141.7945
141.3330
140.8713
140.4092
139.9468
139.4843
139.0215
138.5586
138.0955
137.6323
137.1689
136.7055
136.2420
135.7784
135.3148
134.8511
134.3873
133.9235
133.4597
132.9958
132.5319
132.0680
131.6041
131.1401
130.6761
130.2121
129.7481
129.2841
128.8201
128.3561
127.8920
127.4280
126.9639
126.4999
126.0358
125.5717
125.1077
124.6436
124.1795
123.7155
123.2514
122.7873
122.3232
121.8591
121.3951
120.9310
120.4669
120.0028
119.5387
119.0746
118.6105
118.1464
117.6824
117.2183
116.7542
116.2901
115.8260
115.3619
114.8978
114.4337
113.9696
113.5055
113.0414
112.5774
112.1133
111.6492
111.1851
110.7210
110.2569
109.7928
109.3287
108.8646
108.4005
107.9364
107.4723
107.0082
106.5442
106.0801
105.6160
105.1519
104.6878
104.2237
103.7596
103.2955
102.8314
102.3673
101.9032
101.4391
100.9750
100.5110
100.0469
99.5828
99.1187
98.6546
98.1905
97.7264
97.2623
96.7982
96.3341
95.8700
95.4059
94.9418
94.4777
94.0137
93.5496
93.0855
92.6214
92.1573
91.6932
91.2291
90.7650
90.3009
89.8368
89.3727
88.9086
88.4445
87.9805
87.5164
87.0523
86.5882
86.1241
85.6600
85.1959
84.7318
84.2677
83.8036
83.3395
82.8754
82.4113
81.9472
81.4832
81.0191
80.5550
80.0909
79.6268
79.1627
78.6986
78.2345
77.7704
77.3063
76.8422
76.3781
75.9140
75.4499
74.9858
74.5217
74.0577
73.5936
73.1295
72.6654
72.2013
71.7372
71.2731
70.8090
70.3449
69.8808
69.4167
68.9526
68.4885
68.0244
67.5603
67.0962
66.6321
66.1680
65.7039
65.2398
64.7757
64.3116
63.8475
63.3834
62.9193
62.4551
61.9910
61.5269
61.0628
60.5987
60.1346
59.6705
59.2064
58.7422
58.2781
57.8140
57.3499
56.8858
56.4217
55.9575
55.4934
55.0293
54.5652
54.1011
53.6370
53.1729
52.7088
52.2448
51.7807
51.3166
50.8526
50.3885
49.9245
49.4605
48.9966
48.5326
48.0687
47.6048
47.1409
46.6771
46.2133
45.7496
45.2859
44.8223
44.3588
43.8953
43.4320
42.9687
42.5055
42.0424
41.5795
41.1167
40.6540
40.1916
39.7292
39.2671
38.8052
38.3435
37.8821
37.4209
36.9601
36.4995
36.0393
35.5795
35.1200
34.6610
34.2025
33.7444
33.2869
32.8299
32.3735
31.9178
31.4628
31.0086
30.5552
30.1027
29.6512
29.2010
28.7522
28.3053
27.8609
27.4201
26.9847
26.5577
26.1443
25.7533
25.3998
25.1095
24.9266
152.9043
152.9043
152.9897
153.1905
153.5162
153.9407
154.4041
154.8393
155.1960
155.4479
155.5889
155.6263
155.5732
155.4444
155.2540
155.0141
154.7344
154.4229
154.0858
153.7280
153.3533
152.9646
152.5645
152.1548
151.7371
151.3127
150.8825
150.4476
150.0085
149.5660
149.1204
148.6723
148.2220
147.7699
147.3161
146.8609
146.4046
145.9472
145.4889
145.0298
144.5701
144.1098
143.6490
143.1878
142.7262
142.2643
141.8021
141.3397
140.8770
140.4142
139.9512
139.4880
139.0248
138.5614
138.0980
137.6344
137.1708
136.7071
136.2434
135.7797
135.3159
134.8520
134.3881
133.9242
133.4603
132.9964
132.5324
132.0684
131.6044
131.1404
130.6764
130.2124
129.7484
129.2843
128.8203
128.3562
127.8922
127.4281
126.9640
126.5000
126.0359
125.5718
125.1077
124.6437
124.1796
123.7155
123.2514
122.7873
122.3232
121.8592
121.3951
120.9310
120.4669
120.0028
119.5387
119.0746
118.6105
118.1465
117.6824
117.2183
116.7542
116.2901
115.8260
115.3619
114.8978
114.4337
113.9696
113.5055
113.0414
112.5774
112.1133
111.6492
111.1851
110.7210
110.2569
109.7928
109.3287
108.8646
108.4005
107.9364
107.4723
107.0082
106.5442
106.0801
105.6160
105.1519
104.6878
104.2237
103.7596
103.2955
102.8314
102.3673
101.9032
101.4391
100.9750
100.5110
100.0469
99.5828
99.1187
98.6546
98.1905
97.7264
97.2623
96.7982
96.3341
95.8700
95.4059
94.9418
94.4777
94.0137
93.5496
93.0855
92.6214
92.1573
91.6932
91.2291
90.7650
90.3009
89.8368
89.3727
88.9086
88.4445
87.9805
87.5164
87.0523
86.5882
86.1241
85.6600
85.1959
84.7318
84.2677
83.8036
83.3395
82.8754
82.4113
81.9472
81.4832
81.0191
80.5550
80.0909
79.6268
79.1627
78.6986
78.2345
77.7704
77.3063
76.8422
76.3781
75.9140
75.4499
74.9858
74.5217
74.0577
73.5936
73.1295
72.6654
72.2013
71.7372
71.2731
70.8090
70.3449
69.8808
69.4167
68.9526
68.4885
68.0244
67.5603
67.0962
66.6321
66.1680
65.7039
65.2398
64.7757
64.3116
63.8475
63.3834
62.9193
62.4551
61.9910
61.5269
61.0628
60.5987
60.1346
59.6705
59.2064
58.7422
58.2781
57.8140
57.3499
56.8858
56.4217
55.9575
55.4934
55.0293
54.5652
54.1011
53.6370
53.1729
52.7088
52.2448
51.7807
51.3166
50.8526
50.3885
49.9245
49.4605
48.9966
48.5326
48.0687
47.6048
47.1409
46.6771
46.2133
45.7496
45.2859
44.8223
44.3588
43.8953
43.4320
42.9687
42.5055
42.0424
41.5795
41.1167
40.6540
40.1916
39.7292
39.2671
38.8052
38.3435
37.8821
37.4209
36.9601
36.4995
36.0393
35.5795
35.1200
34.6610
34.2025
33.7444
33.2869
32.8299
32.3735
31.9178
31.4628
31.0086
30.5552
30.1027
29.6512
29.2010
28.7522
28.3053
27.8609
27.4201
26.9847
26.5577
26.1443
25.7533
25.3998
25.1095
24.9266
154.4727
154.4727
154.6511
155.0696
155.7387
156.5732
157.3981
158.0588
158.4771
158.6454
158.5973
158.3816
158.0464
157.6312
157.1662
156.6724
156.1641
155.6503
155.1363
154.6253
154.1187
153.6172
153.1206
152.6287
152.1411
151.6572
151.1765
150.6986
150.2231
149.7495
149.2775
148.8069
148.3374
147.8689
147.4012
146.9341
146.4675
146.0014
145.5356
145.0701
144.6049
144.1399
143.6750
143.2103
142.7457
142.2812
141.8167
141.3523
140.8880
140.4237
139.9595
139.4953
139.0311
138.5669
138.1027
137.6386
137.1744
136.7103
136.2462
135.7821
135.3179
134.8538
134.3897
133.9256
133.4615
132.9974
132.5333
132.0692
131.6052
131.1411
130.6770
130.2129
129.7488
129.2847
128.8206
128.3565
127.8924
127.4283
126.9642
126.5001
126.0360
125.5719
125.1079
124.6438
124.1797
123.7156
123.2515
122.7874
122.3233
121.8592
121.3951
120.9310
120.4669
120.0028
119.5387
119.0747
118.6106
118.1465
117.6824
117.2183
116.7542
116.2901
115.8260
115.3619
114.8978
114.4337
113.9696
113.5055
113.0415
112.5774
112.1133
111.6492
111.1851
110.7210
110.2569
109.7928
109.3287
108.8646
108.4005
107.9364
107.4723
107.0082
106.5442
106.0801
105.6160
105.1519
104.6878
104.2237
103.7596
103.2955
102.8314
102.3673
101.9032
101.4391
100.9750
100.5110
100.0469
99.5828
99.1187
98.6546
98.1905
97.7264
97.2623
96.7982
96.3341
95.8700
95.4059
94.9418
94.4777
94.0137
93.5496
93.0855
92.6214
92.1573
91.6932
91.2291
90.7650
90.3009
89.8368
89.3727
88.9086
88.4445
87.9805
87.5164
87.0523
86.5882
86.1241
85.6600
85.1959
84.7318
84.2677
83.8036
83.3395
82.8754
82.4113
81.9472
81.4832
81.0191
80.5550
80.0909
79.6268
79.1627
78.6986
78.2345
77.7704
77.3063
76.8422
76.3781
75.9140
75.4499
74.9858
74.5217
74.0577
73.5936
73.1295
72.6654
72.2013
71.7372
71.2731
70.8090
70.3449
69.8808
69.4167
68.9526
68.4885
68.0244
67.5603
67.0962
66.6321
66.1680
65.7039
65.2398
64.7757
64.3116
63.8475
63.3834
62.9193
62.4551
61.9910
61.5269
61.0628
60.5987
60.1346
59.6705
59.2064
58.7422
58.2781
57.8140
57.3499
56.8858
56.4217
55.9575
55.4934
55.0293
54.5652
54.1011
53.6370
53.1729
52.7088
52.2448
51.7807
51.3166
50.8526
50.3885
49.9245
49.4605
48.9966
48.5326
48.0687
47.6048
47.1409
46.6771
46.2133
45.7496
45.2859
44.8223
44.3588
43.8953
43.4320
42.9687
42.5055
42.0424
41.5795
41.1167
40.6540
40.1916
39.7292
39.2671
38.8052
38.3435
37.8821
37.4209
36.9601
36.4995
36.0393
35.5795
35.1200
34.6610
34.2025
33.7444
33.2869
32.8299
32.3735
31.9178
31.4628
31.0086
30.5552
30.1027
29.6512
29.2010
28.7522
28.3053
27.8609
27.4201
26.9847
26.5577
26.1443
25.7533
25.3998
25.1095
24.9266
157.3001
157.3001
157.7015
158.6508
160.1690
161.9948
163.5849
164.5925
164.9523
164.7673
164.1944
163.3807
162.4393
161.4487
160.4584
159.4970
158.5791
157.7104
156.8914
156.1195
155.3904
154.6996
154.0422
153.4139
152.8104
152.2281
151.6640
151.1151
150.5793
150.0544
149.5387
149.0309
148.5297
148.0341
147.5432
147.0563
146.5728
146.0921
145.6139
145.1377
144.6633
144.1904
143.7187
143.2481
142.7784
142.3096
141.8414
141.3737
140.9066
140.4399
139.9735
139.5075
139.0417
138.5761
138.1108
137.6456
137.1806
136.7156
136.2508
135.7861
135.3215
134.8570
134.3925
133.9280
133.4636
132.9993
132.5349
132.0706
131.6064
131.1421
130.6779
130.2137
129.7495
129.2853
128.8211
128.3570
127.8928
127.4287
126.9646
126.5004
126.0363
125.5722
125.1081
124.6439
124.1798
123.7157
123.2516
122.7875
122.3234
121.8593
121.3952
120.9311
120.4670
120.0029
119.5388
119.0747
118.6106
118.1465
117.6824
117.2183
116.7542
116.2901
115.8260
115.3619
114.8978
114.4337
113.9696
113.5056
113.0415
112.5774
112.1133
111.6492
111.1851
110.7210
110.2569
109.7928
109.3287
108.8646
108.4005
107.9364
107.4723
107.0083
106.5442
106.0801
105.6160
105.1519
104.6878
104.2237
103.7596
103.2955
102.8314
102.3673
101.9032
101.4391
100.9750
100.5110
100.0469
99.5828
99.1187
98.6546
98.1905
97.7264
97.2623
96.7982
96.3341
95.8700
95.4059
94.9418
94.4777
94.0137
93.5496
93.0855
92.6214
92.1573
91.6932
91.2291
90.7650
90.3009
89.8368
89.3727
88.9086
88.4445
87.9805
87.5164
87.0523
86.5882
86.1241
85.6600
85.1959
84.7318
84.2677
83.8036
83.3395
82.8754
82.4113
81.9472
81.4832
81.0191
80.5550
80.0909
79.6268
79.1627
78.6986
78.2345
77.7704
77.3063
76.8422
76.3781
75.9140
75.4499
74.9858
74.5217
74.0577
73.5936
73.1295
72.6654
72.2013
71.7372
71.2731
70.8090
70.3449
69.8808
69.4167
68.9526
68.4885
68.0244
67.5603
67.0962
66.6321
66.1680
65.7039
65.2398
64.7757
64.3116
63.8475
63.3834
62.9193
62.4551
61.9910
61.5269
61.0628
60.5987
60.1346
59.6705
59.2064
58.7422
58.2781
57.8140
57.3499
56.8858
56.4217
55.9575
55.4934
55.0293
54.5652
54.1011
53.6370
53.1729
52.7088
52.2448
51.7807
51.3166
50.8526
50.3885
49.9245
49.4605
48.9966
48.5326
48.0687
47.6048
47.1409
46.6771
46.2133
45.7496
45.2859
44.8223
44.3588
43.8953
43.4320
42.9687
42.5055
42.0424
41.5795
41.1167
40.6540
40.1916
39.7292
39.2671
38.8052
38.3435
37.8821
37.4209
36.9601
36.4995
36.0393
35.5795
35.1200
34.6610
34.2025
33.7444
33.2869
32.8299
32.3735
31.9178
31.4628
31.0086
30.5552
30.1027
29.6512
29.2010
28.7522
28.3053
27.8609
27.4201
26.9847
26.5577
26.1443
25.7533
25.3998
25.1095
24.9266
162.0534
162.0534
162.9727
165.1952
168.8258
173.1050
176.1814
177.4349
177.1334
175.8031
173.9135
171.7948
169.6505
167.5932
165.6776
163.9235
162.3315
160.8916
159.5896
158.4096
157.3358
156.3536
155.4499
154.6131
153.8331
153.1012
152.4100
151.7532
151.1256
150.5226
149.9404
149.3758
148.8261
148.2891
147.7627
147.2454
146.7359
146.2329
145.7354
145.2428
144.7542
144.2690
143.7868
143.3072
142.8296
142.3540
141.8799
141.4072
140.9357
140.4652
139.9956
139.5267
139.0584
138.5907
138.1235
137.6567
137.1902
136.7241
136.2582
135.7926
135.3271
134.8619
134.3968
133.9318
133.4669
133.0022
132.5375
132.0729
131.6083
131.1438
130.6794
130.2150
129.7507
129.2863
128.8220
128.3578
127.8935
127.4293
126.9651
126.5009
126.0367
125.5725
125.1084
124.6442
124.1801
123.7159
123.2518
122.7877
122.3235
121.8594
121.3953
120.9312
120.4671
120.0030
119.5389
119.0748
118.6107
118.1465
117.6824
117.2183
116.7542
116.2901
115.8261
115.3620
114.8979
114.4338
113.9697
113.5056
113.0415
112.5774
112.1133
111.6492
111.1851
110.7210
110.2569
109.7928
109.3287
108.8646
108.4005
107.9364
107.4723
107.0083
106.5442
106.0801
105.6160
105.1519
104.6878
104.2237
103.7596
103.2955
102.8314
102.3673
101.9032
101.4391
100.9750
100.5110
100.0469
99.5828
99.1187
98.6546
98.1905
97.7264
97.2623
96.7982
96.3341
95.8700
95.4059
94.9418
94.4777
94.0137
93.5496
93.0855
92.6214
92.1573
91.6932
91.2291
90.7650
90.3009
89.8368
89.3727
88.9086
88.4445
87.9805
87.5164
87.0523
86.5882
86.1241
85.6600
85.1959
84.7318
84.2677
83.8036
83.3395
82.8754
82.4113
81.9472
81.4832
81.0191
80.5550
80.0909
79.6268
79.1627
78.6986
78.2345
77.7704
77.3063
76.8422
76.3781
75.9140
75.4499
74.9858
74.5217
74.0577
73.5936
73.1295
72.6654
72.2013
71.7372
71.2731
70.8090
70.3449
69.8808
69.4167
68.9526
68.4885
68.0244
67.5603
67.0962
66.6321
66.1680
65.7039
65.2398
64.7757
64.3116
63.8475
63.3834
62.9193
62.4551
61.9910
61.5269
61.0628
60.5987
60.1346
59.6705
59.2064
58.7422
58.2781
57.8140
57.3499
56.8858
56.4217
55.9575
55.4934
55.0293
54.5652
54.1011
53.6370
53.1729
52.7088
52.2448
51.7807
51.3166
50.8526
50.3885
49.9245
49.4605
48.9966
48.5326
48.0687
47.6048
47.1409
46.6771
46.2133
45.7496
45.2859
44.8223
44.3588
43.8953
43.4320
42.9687
42.5055
42.0424
41.5795
41.1167
40.6540
40.1916
39.7292
39.2671
38.8052
38.3435
37.8821
37.4209
36.9601
36.4995
36.0393
35.5795
35.1200
34.6610
34.2025
33.7444
33.2869
32.8299
32.3735
31.9178
31.4628
31.0086
30.5552
30.1027
29.6512
29.2010
28.7522
28.3053
27.8609
27.4201
26.9847
26.5577
26.1443
25.7533
25.3998
25.1095
24.9266
169.5766
169.5766
171.6466
176.8585
185.8507
196.6280
202.0113
202.1276
199.0719
194.5893
189.7262
185.0143
180.6854
176.8142
173.3994
170.4061
167.7874
165.4945
163.4813
161.7065
160.1340
158.7325
157.4753
156.3400
155.3074
154.3614
153.4885
152.6772
151.9181
151.2029
150.5250
149.8786
149.2590
148.6620
148.0843
147.5230
146.9756
146.4401
145.9146
145.3979
144.8885
144.3854
143.8878
143.3948
142.9057
142.4201
141.9374
141.4572
140.9792
140.5031
140.0285
139.5554
139.0835
138.6126
138.1426
137.6733
137.2048
136.7368
136.2693
135.8023
135.3356
134.8693
134.4033
133.9375
133.4719
133.0065
132.5413
132.0762
131.6113
131.1464
130.6817
130.2170
129.7524
129.2879
128.8234
128.3590
127.8946
127.4302
126.9659
126.5016
126.0373
125.5731
125.1089
124.6446
124.1804
123.7163
123.2521
122.7879
122.3238
121.8596
121.3955
120.9313
120.4672
120.0031
119.5390
119.0748
118.6107
118.1466
117.6825
117.2184
116.7543
116.2902
115.8261
115.3620
114.8979
114.4338
113.9697
113.5056
113.0415
112.5774
112.1133
111.6492
111.1851
110.7210
110.2569
109.7928
109.3287
108.8646
108.4005
107.9364
107.4724
107.0083
106.5442
106.0801
105.6160
105.1519
104.6878
104.2237
103.7596
103.2955
102.8314
102.3673
101.9032
101.4391
100.9750
100.5110
100.0469
99.5828
99.1187
98.6546
98.1905
97.7264
97.2623
96.7982
96.3341
95.8700
95.4059
94.9418
94.4777
94.0137
93.5496
93.0855
92.6214
92.1573
91.6932
91.2291
90.7650
90.3009
89.8368
89.3727
88.9086
88.4445
87.9805
87.5164
87.0523
86.5882
86.1241
85.6600
85.1959
84.7318
84.2677
83.8036
83.3395
82.8754
82.4113
81.9472
81.4832
81.0191
80.5550
80.0909
79.6268
79.1627
78.6986
78.2345
77.7704
77.3063
76.8422
76.3781
75.9140
75.4499
74.9858
74.5217
74.0577
73.5936
73.1295
72.6654
72.2013
71.7372
71.2731
70.8090
70.3449
69.8808
69.4167
68.9526
68.4885
68.0244
67.5603
67.0962
66.6321
66.1680
65.7039
65.2398
64.7757
64.3116
63.8475
63.3834
62.9193
62.4551
61.9910
61.5269
61.0628
60.5987
60.1346
59.6705
59.2064
58.7422
58.2781
57.8140
57.3499
56.8858
56.4217
55.9575
55.4934
55.0293
54.5652
54.1011
53.6370
53.1729
52.7088
52.2448
51.7807
51.3166
50.8526
50.3885
49.9245
49.4605
48.9966
48.5326
48.0687