# vtk DataFile Version 5.0
Example 3D regular grid VTK file.
ASCII
DATASET UNSTRUCTURED_GRID
POINTS 90601 float
0 0 0
0 10 0
0 20 0
0 30 0
0 40 0
0 50 0
0 60 0
0 70 0
0 80 0
0 90 0
0 100 0
0 110 0
0 120 0
0 130 0
0 140 0
0 150 0
0 160 0
0 170 0
0 180 0
0 190 0
0 200 0
0 210 0
0 220 0
0 230 0
0 240 0
0 250 0
0 260 0
0 270 0
0 280 0
0 290 0
0 300 0
0 310 0
0 320 0
0 330 0
0 340 0
0 350 0
0 360 0
0 370 0
0 380 0
0 390 0
0 400 0
0 410 0
0 420 0
0 430 0
0 440 0
0 450 0
0 460 0
0 470 0
0 480 0
0 490 0
0 500 0
0 510 0
0 520 0
0 530 0
0 540 0
0 550 0
0 560 0
0 570 0
0 580 0
0 590 0
0 600 0
0 610 0
0 620 0
0 630 0
0 640 0
0 650 0
0 660 0
0 670 0
0 680 0
0 690 0
0 700 0
0 710 0
0 720 0
0 730 0
0 740 0
0 750 0
0 760 0
0 770 0
0 780 0
0 790 0
0 800 0
0 810 0
0 820 0
0 830 0
0 840 0
0 850 0
0 860 0
0 870 0
0 880 0
0 890 0
0 900 0
0 910 0
0 920 0
0 930 0
0 940 0
0 950 0
0 960 0
0 970 0
0 980 0
0 990 0
0 1000 0
0 1010 0
0 1020 0
0 1030 0
0 1040 0
0 1050 0
0 1060 0
0 1070 0
0 1080 0
0 1090 0
0 1100 0
0 1110 0
0 1120 0
0 1130 0
0 1140 0
0 1150 0
0 1160 0
0 1170 0
0 1180 0
0 1190 0
0 1200 0
0 1210 0
0 1220 0
0 1230 0
0 1240 0
0 1250 0
0 1260 0
0 1270 0
0 1280 0
0 1290 0
0 1300 0
0 1310 0
0 1320 0
0 1330 0
0 1340 0
0 1350 0
0 1360 0
0 1370 0
0 1380 0
0 1390 0
0 1400 0
0 1410 0
0 1420 0
0 1430 0
0 1440 0
0 1450 0
0 1460 0
0 1470 0
0 1480 0
0 1490 0
0 1500 0
0 1510 0
0 1520 0
0 1530 0
0 1540 0
0 1550 0
0 1560 0
0 1570 0
0 1580 0
0 1590 0
0 1600 0
0 1610 0
0 1620 0
0 1630 0
0 1640 0
0 1650 0
0 1660 0
0 1670 0
0 1680 0
0 1690 0
0 1700 0
0 1710 0
0 1720 0
0 1730 0
0 1740 0
0 1750 0
0 1760 0
0 1770 0
0 1780 0
0 1790 0
0 1800 0
0 1810 0
0 1820 0
0 1830 0
0 1840 0
0 1850 0
0 1860 0
0 1870 0
0 1880 0
0 1890 0
0 1900 0
0 1910 0
0 1920 0
0 1930 0
0 1940 0
0 1950 0
0 1960 0
0 1970 0
0 1980 0
0 1990 0
0 2000 0
0 2010 0
0 2020 0
0 2030 0
0 2040 0
0 2050 0
0 2060 0
0 2070 0
0 2080 0
0 2090 0
0 2100 0
0 2110 0
0 2120 0
0 2130 0
0 2140 0
0 2150 0
0 2160 0
0 2170 0
0 2180 0
0 2190 0
0 2200 0
0 2210 0
0 2220 0
0 2230 0
0 2240 0
0 2250 0
0 2260 0
0 2270 0
0 2280 0
0 2290 0
0 2300 0
0 2310 0
0 2320 0
0 2330 0
0 2340 0
0 2350 0
0 2360 0
0 2370 0
0 2380 0
0 2390 0
0 2400 0
0 2410 0
0 2420 0
0 2430 0
0 2440 0
0 2450 0
0 2460 0
0 2470 0
0 2480 0
0 2490 0
0 2500 0
0 2510 0
0 2520 0
0 2530 0
0 2540 0
0 2550 0
0 2560 0
0 2570 0
0 2580 0
0 2590 0
0 2600 0
0 2610 0
0 2620 0
0 2630 0
0 2640 0
0 2650 0
0 2660 0
0 2670 0
0 2680 0
0 2690 0
0 2700 0
0 2710 0
0 2720 0
0 2730 0
0 2740 0
0 2750 0
0 2760 0
0 2770 0
0 2780 0
0 2790 0
0 2800 0
0 2810 0
0 2820 0
0 2830 0
0 2840 0
0 2850 0
0 2860 0
0 2870 0
0 2880 0
0 2890 0
0 2900 0
0 2910 0
0 2920 0
0 2930 0
0 2940 0
0 2950 0
0 2960 0
0 2970 0
0 2980 0
0 2990 0
0 3000 0
10 0 0
10 10 0
10 20 0
10 30 0
10 40 0
10 50 0
10 60 0
10 70 0
10 80 0
10 90 0
10 100 0
10 110 0
10 120 0
10 130 0
10 140 0
10 150 0
10 160 0
10 170 0
10 180 0
10 190 0
10 200 0
10 210 0
10 220 0
10 230 0
10 240 0
10 250 0
10 260 0
10 270 0
10 280 0
10 290 0
10 300 0
10 310 0
10 320 0
10 330 0
10 340 0
10 350 0
10 360 0
10 370 0
10 380 0
10 390 0
10 400 0
10 410 0
10 420 0
10 430 0
10 440 0
10 450 0
10 460 0
10 470 0
10 480 0
10 490 0
10 500 0
10 510 0
10 520 0
10 530 0
10 540 0
10 550 0
10 560 0
10 570 0
10 580 0
10 590 0
10 600 0
10 610 0
10 620 0
10 630 0
10 640 0
10 650 0
10 660 0
10 670 0
10 680 0
10 690 0
10 700 0
10 710 0
10 720 0
10 730 0
10 740 0
10 750 0
10 760 0
10 770 0
10 780 0
10 790 0
10 800 0
10 810 0
10 820 0
10 830 0
10 840 0
10 850 0
10 860 0
10 870 0
10 880 0
10 890 0
10 900 0
10 910 0
10 920 0
10 930 0
10 940 0
10 950 0
10 960 0
10 970 0
10 980 0
10 990 0
10 1000 0
10 1010 0
10 1020 0
10 1030 0
10 1040 0
10 1050 0
10 1060 0
10 1070 0
10 1080 0
10 1090 0
10 1100 0
10 1110 0
10 1120 0
10 1130 0
10 1140 0
10 1150 0
10 1160 0
10 1170 0
10 1180 0
10 1190 0
10 1200 0
10 1210 0
10 1220 0
10 1230 0
10 1240 0
10 1250 0
10 1260 0
10 1270 0
10 1280 0
10 1290 0
10 1300 0
10 1310 0
10 1320 0
10 1330 0
10 1340 0
10 1350 0
10 1360 0
10 1370 0
10 1380 0
10 1390 0
10 1400 0
10 1410 0
10 1420 0
10 1430 0
10 1440 0
10 1450 0
10 1460 0
10 1470 0
10 1480 0
10 1490 0
10 1500 0
10 1510 0
10 1520 0
10 1530 0
10 1540 0
10 1550 0
10 1560 0
10 1570 0
10 1580 0
10 1590 0
10 1600 0
10 1610 0
10 1620 0
10 1630 0
10 1640 0
10 1650 0
10 1660 0
10 1670 0
10 1680 0
10 1690 0
10 1700 0
10 1710 0
10 1720 0
10 1730 0
10 1740 0
10 1750 0
10 1760 0
10 1770 0
10 1780 0
10 1790 0
10 1800 0
10 1810 0
10 1820 0
10 1830 0
10 1840 0
10 1850 0
10 1860 0
10 1870 0
10 1880 0
10 1890 0
10 1900 0
10 1910 0
10 1920 0
10 1930 0
10 1940 0
10 1950 0
10 1960 0
10 1970 0
10 1980 0
10 1990 0
10 2000 0
10 2010 0
10 2020 0
10 2030 0
10 2040 0
10 2050 0
10 2060 0
10 2070 0
10 2080 0
10 2090 0
10 2100 0
10 2110 0
10 2120 0
10 2130 0
10 2140 0
10 2150 0
10 2160 0
10 2170 0
10 2180 0
10 2190 0
10 2200 0
10 2210 0
10 2220 0
10 2230 0
10 2240 0
10 2250 0
10 2260 0
10 2270 0
10 2280 0
10 2290 0
10 2300 0
10 2310 0
10 2320 0
10 2330 0
10 2340 0
10 2350 0
10 2360 0
10 2370 0
10 2380 0
10 2390 0
10 2400 0
10 2410 0
10 2420 0
10 2430 0
10 2440 0
10 2450 0
10 2460 0
10 2470 0
10 2480 0
10 2490 0
10 2500 0
10 2510 0
10 2520 0
10 2530 0
10 2540 0
10 2550 0
10 2560 0
10 2570 0
10 2580 0
10 2590 0
10 2600 0
10 2610 0
10 2620 0
10 2630 0
10 2640 0
10 2650 0
10 2660 0
10 2670 0
10 2680 0
10 2690 0
10 2700 0
10 2710 0
10 2720 0
10 2730 0
10 2740 0
10 2750 0
10 2760 0
10 2770 0
10 2780 0
10 2790 0
10 2800 0
10 2810 0
10 2820 0
10 2830 0
10 2840 0
10 2850 0
10 2860 0
10 2870 0
10 2880 0
10 2890 0
10 2900 0
10 2910 0
10 2920 0
10 2930 0
10 2940 0
10 2950 0
10 2960 0
10 2970 0
10 2980 0
10 2990 0
10 3000 0
20 0 0
20 10 0
20 20 0
20 30 0
20 40 0
20 50 0
20 60 0
20 70 0
20 80 0
20 90 0
20 100 0
20 110 0
20 120 0
20 130 0
20 140 0
20 150 0
20 160 0
20 170 0
20 180 0
20 190 0
20 200 0
20 210 0
20 220 0
20 230 0
20 240 0
20 250 0
20 260 0
20 270 0
20 280 0
20 290 0
20 300 0
20 310 0
20 320 0
20 330 0
20 340 0
20 350 0
20 360 0
20 370 0
20 380 0
20 390 0
20 400 0
20 410 0
20 420 0
20 430 0
20 440 0
20 450 0
20 460 0
20 470 0
20 480 0
20 490 0
20 500 0
20 510 0
20 520 0
20 530 0
20 540 0
20 550 0
20 560 0
20 570 0
20 580 0
20 590 0
20 600 0
20 610 0
20 620 0
20 630 0
20 640 0
20 650 0
20 660 0
20 670 0
20 680 0
20 690 0
20 700 0
20 710 0
20 720 0
20 730 0
20 740 0
20 750 0
20 760 0
20 770 0
20 780 0
20 790 0
20 800 0
20 810 0
20 820 0
20 830 0
20 840 0
20 850 0
20 860 0
20 870 0
20 880 0
20 890 0
20 900 0
20 910 0
20 920 0
20 930 0
20 940 0
20 950 0
20 960 0
20 970 0
20 980 0
20 990 0
20 1000 0
20 1010 0
20 1020 0
20 1030 0
20 1040 0
20 1050 0
20 1060 0
20 1070 0
20 1080 0
20 1090 0
20 1100 0
20 1110 0
20 1120 0
20 1130 0
20 1140 0
20 1150 0
20 1160 0
20 1170 0
20 1180 0
20 1190 0
20 1200 0
20 1210 0
20 1220 0
20 1230 0
20 1240 0
20 1250 0
20 1260 0
20 1270 0
20 1280 0
20 1290 0
20 1300 0
20 1310 0
20 1320 0
20 1330 0
20 1340 0
20 1350 0
20 1360 0
20 1370 0
20 1380 0
20 1390 0
20 1400 0
20 1410 0
20 1420 0
20 1430 0
20 1440 0
20 1450 0
20 1460 0
20 1470 0
20 1480 0
20 1490 0
20 1500 0
20 1510 0
20 1520 0
20 1530 0
20 1540 0
20 1550 0
20 1560 0
20 1570 0
20 1580 0
20 1590 0
20 1600 0
20 1610 0
20 1620 0
20 1630 0
20 1640 0
20 1650 0
20 1660 0
20 1670 0
20 1680 0
20 1690 0
20 1700 0
20 1710 0
20 1720 0
20 1730 0
20 1740 0
20 1750 0
20 1760 0
20 1770 0
20 1780 0
20 1790 0
20 1800 0
20 1810 0
20 1820 0
20 1830 0
20 1840 0
20 1850 0
20 1860 0
20 1870 0
20 1880 0
20 1890 0
20 1900 0
20 1910 0
20 1920 0
20 1930 0
20 1940 0
20 1950 0
20 1960 0
20 1970 0
20 1980 0
20 1990 0
20 2000 0
20 2010 0
20 2020 0
20 2030 0
20 2040 0
20 2050 0
20 2060 0
20 2070 0
20 2080 0
20 2090 0
20 2100 0
20 2110 0
20 2120 0
20 2130 0
20 2140 0
20 2150 0
20 2160 0
20 2170 0
20 2180 0
20 2190 0
20 2200 0
20 2210 0
20 2220 0
20 2230 0
20 2240 0
20 2250 0
20 2260 0
20 2270 0
20 2280 0
20 2290 0
20 2300 0
20 2310 0
20 2320 0
20 2330 0
20 2340 0
20 2350 0
20 2360 0
20 2370 0
20 2380 0
20 2390 0
20 2400 0
20 2410 0
20 2420 0
20 2430 0
20 2440 0
20 2450 0
20 2460 0
20 2470 0
20 2480 0
20 2490 0
20 2500 0
20 2510 0
20 2520 0
20 2530 0
20 2540 0
20 2550 0
20 2560 0
20 2570 0
20 2580 0
20 2590 0
20 2600 0
20 2610 0
20 2620 0
20 2630 0
20 2640 0
20 2650 0
20 2660 0
20 2670 0
20 2680 0
20 2690 0
20 2700 0
20 2710 0
20 2720 0
20 2730 0
20 2740 0
20 2750 0
20 2760 0
20 2770 0
20 2780 0
20 2790 0
20 2800 0
20 2810 0
20 2820 0
20 2830 0
20 2840 0
20 2850 0
20 2860 0
20 2870 0
20 2880 0
20 2890 0
20 2900 0
20 2910 0
20 2920 0
20 2930 0
20 2940 0
20 2950 0
20 2960 0
20 2970 0
20 2980 0
20 2990 0
20 3000 0
30 0 0
30 10 0
30 20 0
30 30 0
30 40 0
30 50 0
30 60 0
30 70 0
30 80 0
30 90 0
30 100 0
30 110 0
30 120 0
30 130 0
30 140 0
30 150 0
30 160 0
30 170 0
30 180 0
30 190 0
30 200 0
30 210 0
30 220 0
30 230 0
30 240 0
30 250 0
30 260 0
30 270 0
30 280 0
30 290 0
30 300 0
30 310 0
30 320 0
30 330 0
30 340 0
30 350 0
30 360 0
30 370 0
30 380 0
30 390 0
30 400 0
30 410 0
30 420 0
30 430 0
30 440 0
30 450 0
30 460 0
30 470 0
30 480 0
30 490 0
30 500 0
30 510 0
30 520 0
30 530 0
30 540 0
30 550 0
30 560 0
30 570 0
30 580 0
30 590 0
30 600 0
30 610 0
30 620 0
30 630 0
30 640 0
30 650 0
30 660 0
30 670 0
30 680 0
30 690 0
30 700 0
30 710 0
30 720 0
30 730 0
30 740 0
30 750 0
30 760 0
30 770 0
30 780 0
30 790 0
30 800 0
30 810 0
30 820 0
30 830 0
30 840 0
30 850 0
30 860 0
30 870 0
30 880 0
30 890 0
30 900 0
30 910 0
30 920 0
30 930 0
30 940 0
30 950 0
30 960 0
30 970 0
30 980 0
30 990 0
30 1000 0
30 1010 0
30 1020 0
30 1030 0
30 1040 0
30 1050 0
30 1060 0
30 1070 0
30 1080 0
30 1090 0
30 1100 0
30 1110 0
30 1120 0
30 1130 0
30 1140 0
30 1150 0
30 1160 0
30 1170 0
30 1180 0
30 1190 0
30 1200 0
30 1210 0
30 1220 0
30 1230 0
30 1240 0
30 1250 0
30 1260 0
30 1270 0
30 1280 0
30 1290 0
30 1300 0
30 1310 0
30 1320 0
30 1330 0
30 1340 0
30 1350 0
30 1360 0
30 1370 0
30 1380 0
30 1390 0
30 1400 0
30 1410 0
30 1420 0
30 1430 0
30 1440 0
30 1450 0
30 1460 0
30 1470 0
30 1480 0
30 1490 0
30 1500 0
30 1510 0
30 1520 0
30 1530 0
30 1540 0
30 1550 0
30 1560 0
30 1570 0
30 1580 0
30 1590 0
[...]
POINT_DATA 90601
SCALARS P float
LOOKUP_TABLE default
156.5477
156.5477
156.5847
156.6728
156.8207
157.0274
157.2806
157.5592
157.8389
158.0969
158.3147
158.4799
158.5857
158.6300
158.6140
158.5413
158.4166
158.2452
158.0326
157.7840
157.5041
157.1974
156.8675
156.5179
156.1515
155.7708
155.3778
154.9745
154.5623
154.1426
153.7166
153.2850
152.8489
152.4087
151.9652
151.5188
151.0699
150.6189
150.1661
149.7118
149.2561
148.7993
148.3415
147.8828
147.4234
146.9634
146.5028
146.0418
145.5803
145.1186
144.6565
144.1941
143.7315
143.2688
142.8058
142.3427
141.8795
141.4162
140.9527
140.4892
140.0256
139.5620
139.0983
138.6345
138.1707
137.7069
137.2430
136.7791
136.3152
135.8513
135.3873
134.9233
134.4594
133.9954
133.5313
133.0673
132.6033
132.1392
131.6752
131.2111
130.7471
130.2830
129.8190
129.3549
128.8908
128.4268
127.9627
127.4986
127.0345
126.5704
126.1064
125.6423
125.1782
124.7141
124.2500
123.7859
123.3218
122.8577
122.3937
121.9296
121.4655
121.0014
120.5373
120.0732
119.6091
119.1450
118.6809
118.2168
117.7528
117.2887
116.8246
116.3605
115.8964
115.4323
114.9682
114.5041
114.0400
113.5759
113.1118
112.6477
112.1836
111.7196
111.2555
110.7914
110.3273
109.8632
109.3991
108.9350
108.4709
108.0068
107.5427
107.0786
106.6145
106.1504
105.6864
105.2223
104.7582
104.2941
103.8300
103.3659
102.9018
102.4377
101.9736
101.5095
101.0454
100.5813
100.1172
99.6531
99.1891
98.7250
98.2609
97.7968
97.3327
96.8686
96.4045
95.9404
95.4763
95.0122
94.5481
94.0840
93.6199
93.1559
92.6918
92.2277
91.7636
91.2995
90.8354
90.3713
89.9072
89.4431
88.9790
88.5149
88.0508
87.5867
87.1226
86.6586
86.1945
85.7304
85.2663
84.8022
84.3381
83.8740
83.4099
82.9458
82.4817
82.0176
81.5535
81.0894
80.6253
80.1613
79.6972
79.2331
78.7690
78.3049
77.8408
77.3767
76.9126
76.4485
75.9844
75.5203
75.0562
74.5921
74.1280
73.6639
73.1998
72.7357
72.2716
71.8076
71.3435
70.8794
70.4153
69.9512
69.4871
69.0230
68.5589
68.0948
67.6307
67.1666
66.7025
66.2384
65.7743
65.3101
64.8460
64.3819
63.9178
63.4537
62.9896
62.5255
62.0614
61.5973
61.1332
60.6691
60.2050
59.7408
59.2767
58.8126
58.3485
57.8844
57.4203
56.9562
56.4921
56.0280
55.5639
55.0998
54.6357
54.1716
53.7075
53.2434
52.7794
52.3153
51.8513
51.3873
50.9233
50.4593
49.9953
49.5314
49.0674
48.6035
48.1397
47.6759
47.2121
46.7484
46.2847
45.8211
45.3575
44.8940
44.4306
43.9673
43.5041
43.0410
42.5780
42.1152
41.6524
41.1899
40.7275
40.2652
39.8032
39.3414
38.8798
38.4185
37.9574
37.4967
37.0362
36.5761
36.1164
35.6572
35.1984
34.7401
34.2825
33.8258
33.3701
32.9158
32.4636
32.0147
31.5708
31.1350
30.7128
30.3130
29.9514
29.6543
29.4670
156.5477
156.5477
156.5847
156.6728
156.8207
157.0274
157.2806
157.5592
157.8389
158.0969
158.3147
158.4799
158.5857
158.6300
158.6140
158.5413
158.4166
158.2452
158.0326
157.7840
157.5041
157.1974
156.8675
156.5179
156.1515
155.7708
155.3778
154.9745
154.5623
154.1426
153.7166
153.2850
152.8489
152.4087
151.9652
151.5188
151.0699
150.6189
150.1661
149.7118
149.2561
148.7993
148.3415
147.8828
147.4234
146.9634
146.5028
146.0418
145.5803
145.1186
144.6565
144.1941
143.7315
143.2688
142.8058
142.3427
141.8795
141.4162
140.9527
140.4892
140.0256
139.5620
139.0983
138.6345
138.1707
137.7069
137.2430
136.7791
136.3152
135.8513
135.3873
134.9233
134.4594
133.9954
133.5313
133.0673
132.6033
132.1392
131.6752
131.2111
130.7471
130.2830
129.8190
129.3549
128.8908
128.4268
127.9627
127.4986
127.0345
126.5704
126.1064
125.6423
125.1782
124.7141
124.2500
123.7859
123.3218
122.8577
122.3937
121.9296
121.4655
121.0014
120.5373
120.0732
119.6091
119.1450
118.6809
118.2168
117.7528
117.2887
116.8246
116.3605
115.8964
115.4323
114.9682
114.5041
114.0400
113.5759
113.1118
112.6477
112.1836
111.7196
111.2555
110.7914
110.3273
109.8632
109.3991
108.9350
108.4709
108.0068
107.5427
107.0786
106.6145
106.1504
105.6864
105.2223
104.7582
104.2941
103.8300
103.3659
102.9018
102.4377
101.9736
101.5095
101.0454
100.5813
100.1172
99.6531
99.1891
98.7250
98.2609
97.7968
97.3327
96.8686
96.4045
95.9404
95.4763
95.0122
94.5481
94.0840
93.6199
93.1559
92.6918
92.2277
91.7636
91.2995
90.8354
90.3713
89.9072
89.4431
88.9790
88.5149
88.0508
87.5867
87.1226
86.6586
86.1945
85.7304
85.2663
84.8022
84.3381
83.8740
83.4099
82.9458
82.4817
82.0176
81.5535
81.0894
80.6253
80.1613
79.6972
79.2331
78.7690
78.3049
77.8408
77.3767
76.9126
76.4485
75.9844
75.5203
75.0562
74.5921
74.1280
73.6639
73.1998
72.7357
72.2716
71.8076
71.3435
70.8794
70.4153
69.9512
69.4871
69.0230
68.5589
68.0948
67.6307
67.1666
66.7025
66.2384
65.7743
65.3101
64.8460
64.3819
63.9178
63.4537
62.9896
62.5255
62.0614
61.5973
61.1332
60.6691
60.2050
59.7408
59.2767
58.8126
58.3485
57.8844
57.4203
56.9562
56.4921
56.0280
55.5639
55.0998
54.6357
54.1716
53.7075
53.2434
52.7794
52.3153
51.8513
51.3873
50.9233
50.4593
49.9953
49.5314
49.0674
48.6035
48.1397
47.6759
47.2121
46.7484
46.2847
45.8211
45.3575
44.8940
44.4306
43.9673
43.5041
43.0410
42.5780
42.1152
41.6524
41.1899
40.7275
40.2652
39.8032
39.3414
38.8798
38.4185
37.9574
37.4967
37.0362
36.5761
36.1164
35.6572
35.1984
34.7401
34.2825
33.8258
33.3701
32.9158
32.4636
32.0147
31.5708
31.1350
30.7128
30.3130
29.9514
29.6543
29.4670
156.8390
156.8390
156.8878
157.0033
157.1947
157.4553
157.7622
158.0833
158.3868
158.6476
158.8494
158.9842
159.0502
159.0497
158.9877
158.8700
158.7032
158.4935
158.2465
157.9676
157.6613
157.3317
156.9822
156.6157
156.2349
155.8419
155.4385
155.0263
154.6065
154.1804
153.7489
153.3127
152.8726
152.4291
151.9827
151.5338
151.0828
150.6300
150.1757
149.7200
149.2632
148.8054
148.3467
147.8874
147.4274
146.9668
146.5058
146.0444
145.5826
145.1205
144.6581
144.1956
143.7328
143.2699
142.8068
142.3436
141.8802
141.4168
140.9533
140.4897
140.0261
139.5624
139.0986
138.6348
138.1710
137.7071
137.2432
136.7793
136.3154
135.8514
135.3874
134.9234
134.4594
133.9954
133.5314
133.0674
132.6033
132.1393
131.6752
131.2112
130.7471
130.2831
129.8190
129.3549
128.8908
128.4268
127.9627
127.4986
127.0345
126.5704
126.1064
125.6423
125.1782
124.7141
124.2500
123.7859
123.3218
122.8578
122.3937
121.9296
121.4655
121.0014
120.5373
120.0732
119.6091
119.1450
118.6809
118.2168
117.7528
117.2887
116.8246
116.3605
115.8964
115.4323
114.9682
114.5041
114.0400
113.5759
113.1118
112.6477
112.1836
111.7196
111.2555
110.7914
110.3273
109.8632
109.3991
108.9350
108.4709
108.0068
107.5427
107.0786
106.6145
106.1504
105.6864
105.2223
104.7582
104.2941
103.8300
103.3659
102.9018
102.4377
101.9736
101.5095
101.0454
100.5813
100.1172
99.6531
99.1891
98.7250
98.2609
97.7968
97.3327
96.8686
96.4045
95.9404
95.4763
95.0122
94.5481
94.0840
93.6199
93.1559
92.6918
92.2277
91.7636
91.2995
90.8354
90.3713
89.9072
89.4431
88.9790
88.5149
88.0508
87.5867
87.1226
86.6586
86.1945
85.7304
85.2663
84.8022
84.3381
83.8740
83.4099
82.9458
82.4817
82.0176
81.5535
81.0894
80.6253
80.1613
79.6972
79.2331
78.7690
78.3049
77.8408
77.3767
76.9126
76.4485
75.9844
75.5203
75.0562
74.5921
74.1280
73.6639
73.1998
72.7357
72.2716
71.8076
71.3435
70.8794
70.4153
69.9512
69.4871
69.0230
68.5589
68.0948
67.6307
67.1666
66.7025
66.2384
65.7743
65.3101
64.8460
64.3819
63.9178
63.4537
62.9896
62.5255
62.0614
61.5973
61.1332
60.6691
60.2050
59.7408
59.2767
58.8126
58.3485
57.8844
57.4203
56.9562
56.4921
56.0280
55.5639
55.0998
54.6357
54.1716
53.7075
53.2434
52.7794
52.3153
51.8513
51.3873
50.9233
50.4593
49.9953
49.5314
49.0674
48.6035
48.1397
47.6759
47.2121
46.7484
46.2847
45.8211
45.3575
44.8940
44.4306
43.9673
43.5041
43.0410
42.5780
42.1152
41.6524
41.1899
40.7275
40.2652
39.8032
39.3414
38.8798
38.4185
37.9574
37.4967
37.0362
36.5761
36.1164
35.6572
35.1984
34.7401
34.2825
33.8258
33.3701
32.9158
32.4636
32.0147
31.5708
31.1350
30.7128
30.3130
29.9514
29.6543
29.4670
157.6156
157.6156
157.7010
157.9018
158.2275
158.6520
159.1154
159.5507
159.9074
160.1592
160.3002
160.3376
160.2845
160.1557
159.9653
159.7254
159.4457
159.1342
158.7971
158.4393
158.0646
157.6759
157.2758
156.8661
156.4484
156.0240
155.5938
155.1589
154.7198
154.2773
153.8317
153.3836
152.9333
152.4812
152.0274
151.5722
151.1159
150.6585
150.2002
149.7411
149.2814
148.8211
148.3603
147.8991
147.4375
146.9756
146.5134
146.0510
145.5883
145.1255
144.6625
144.1993
143.7361
143.2727
142.8093
142.3457
141.8821
141.4185
140.9547
140.4910
140.0272
139.5633
139.0994
138.6355
138.1716
137.7077
137.2437
136.7797
136.3157
135.8517
135.3877
134.9237
134.4597
133.9956
133.5316
133.0675
132.6035
132.1394
131.6753
131.2113
130.7472
130.2831
129.8190
129.3550
128.8909
128.4268
127.9627
127.4986
127.0346
126.5705
126.1064
125.6423
125.1782
124.7141
124.2500
123.7859
123.3219
122.8578
122.3937
121.9296
121.4655
121.0014
120.5373
120.0732
119.6091
119.1450
118.6809
118.2168
117.7528
117.2887
116.8246
116.3605
115.8964
115.4323
114.9682
114.5041
114.0400
113.5759
113.1118
112.6477
112.1836
111.7196
111.2555
110.7914
110.3273
109.8632
109.3991
108.9350
108.4709
108.0068
107.5427
107.0786
106.6145
106.1504
105.6864
105.2223
104.7582
104.2941
103.8300
103.3659
102.9018
102.4377
101.9736
101.5095
101.0454
100.5813
100.1172
99.6531
99.1891
98.7250
98.2609
97.7968
97.3327
96.8686
96.4045
95.9404
95.4763
95.0122
94.5481
94.0840
93.6199
93.1559
92.6918
92.2277
91.7636
91.2995
90.8354
90.3713
89.9072
89.4431
88.9790
88.5149
88.0508
87.5867
87.1226
86.6586
86.1945
85.7304
85.2663
84.8022
84.3381
83.8740
83.4099
82.9458
82.4817
82.0176
81.5535
81.0894
80.6253
80.1613
79.6972
79.2331
78.7690
78.3049
77.8408
77.3767
76.9126
76.4485
75.9844
75.5203
75.0562
74.5921
74.1280
73.6639
73.1998
72.7357
72.2716
71.8076
71.3435
70.8794
70.4153
69.9512
69.4871
69.0230
68.5589
68.0948
67.6307
67.1666
66.7025
66.2384
65.7743
65.3101
64.8460
64.3819
63.9178
63.4537
62.9896
62.5255
62.0614
61.5973
61.1332
60.6691
60.2050
59.7408
59.2767
58.8126
58.3485
57.8844
57.4203
56.9562
56.4921
56.0280
55.5639
55.0998
54.6357
54.1716
53.7075
53.2434
52.7794
52.3153
51.8513
51.3873
50.9233
50.4593
49.9953
49.5314
49.0674
48.6035
48.1397
47.6759
47.2121
46.7484
46.2847
45.8211
45.3575
44.8940
44.4306
43.9673
43.5041
43.0410
42.5780
42.1152
41.6524
41.1899
40.7275
40.2652
39.8032
39.3414
38.8798
38.4185
37.9574
37.4967
37.0362
36.5761
36.1164
35.6572
35.1984
34.7401
34.2825
33.8258
33.3701
32.9158
32.4636
32.0147
31.5708
31.1350
30.7128
30.3130
29.9514
29.6543
29.4670
159.1840
159.1840
159.3624
159.7809
160.4501
161.2845
162.1094
162.7701
163.1884
163.3567
163.3086
163.0929
162.7577
162.3425
161.8775
161.3837
160.8754
160.3616
159.8476
159.3366
158.8300
158.3285
157.8319
157.3400
156.8524
156.3685
155.8878
155.4099
154.9344
154.4608
153.9888
153.5182
153.0488
152.5802
152.1125
151.6454
151.1788
150.7127
150.2469
149.7814
149.3162
148.8512
148.3863
147.9216
147.4570
146.9925
146.5280
146.0636
145.5993
145.1350
144.6708
144.2066
143.7424
143.2782
142.8140
142.3499
141.8857
141.4216
140.9575
140.4934
140.0293
139.5651
139.1010
138.6369
138.1728
137.7087
137.2446
136.7806
136.3165
135.8524
135.3883
134.9242
134.4601
133.9960
133.5319
133.0678
132.6037
132.1396
131.6755
131.2114
130.7473
130.2833
129.8192
129.3551
128.8910
128.4269
127.9628
127.4987
127.0346
126.5705
126.1064
125.6423
125.1782
124.7141
124.2501
123.7860
123.3219
122.8578
122.3937
121.9296
121.4655
121.0014
120.5373
120.0732
119.6091
119.1450
118.6809
118.2169
117.7528
117.2887
116.8246
116.3605
115.8964
115.4323
114.9682
114.5041
114.0400
113.5759
113.1118
112.6477
112.1836
111.7196
111.2555
110.7914
110.3273
109.8632
109.3991
108.9350
108.4709
108.0068
107.5427
107.0786
106.6145
106.1504
105.6864
105.2223
104.7582
104.2941
103.8300
103.3659
102.9018
102.4377
101.9736
101.5095
101.0454
100.5813
100.1172
99.6531
99.1891
98.7250
98.2609
97.7968
97.3327
96.8686
96.4045
95.9404
95.4763
95.0122
94.5481
94.0840
93.6199
93.1559
92.6918
92.2277
91.7636
91.2995
90.8354
90.3713
89.9072
89.4431
88.9790
88.5149
88.0508
87.5867
87.1226
86.6586
86.1945
85.7304
85.2663
84.8022
84.3381
83.8740
83.4099
82.9458
82.4817
82.0176
81.5535
81.0894
80.6253
80.1613
79.6972
79.2331
78.7690
78.3049
77.8408
77.3767
76.9126
76.4485
75.9844
75.5203
75.0562
74.5921
74.1280
73.6639
73.1998
72.7357
72.2716
71.8076
71.3435
70.8794
70.4153
69.9512
69.4871
69.0230
68.5589
68.0948
67.6307
67.1666
66.7025
66.2384
65.7743
65.3101
64.8460
64.3819
63.9178
63.4537
62.9896
62.5255
62.0614
61.5973
61.1332
60.6691
60.2050
59.7408
59.2767
58.8126
58.3485
57.8844
57.4203
56.9562
56.4921
56.0280
55.5639
55.0998
54.6357
54.1716
53.7075
53.2434
52.7794
52.3153
51.8513
51.3873
50.9233
50.4593
49.9953
49.5314
49.0674
48.6035
48.1397
47.6759
47.2121
46.7484
46.2847
45.8211
45.3575
44.8940
44.4306
43.9673
43.5041
43.0410
42.5780
42.1152
41.6524
41.1899
40.7275
40.2652
39.8032
39.3414
38.8798
38.4185
37.9574
37.4967
37.0362
36.5761
36.1164
35.6572
35.1984
34.7401
34.2825
33.8258
33.3701
32.9158
32.4636
32.0147
31.5708
31.1350
30.7128
30.3130
29.9514
29.6543
29.4670
162.0114
162.0114
162.4128
163.3621
164.8803
166.7061
168.2962
169.3038
169.6636
169.4786
168.9058
168.0920
167.1506
166.1601
165.1697
164.2083
163.2904
162.4217
161.6027
160.8308
160.1017
159.4109
158.7535
158.1252
157.5217
156.9394
156.3753
155.8264
155.2906
154.7657
154.2500
153.7422
153.2410
152.7454
152.2545
151.7676
151.2841
150.8034
150.3252
149.8490
149.3746
148.9017
148.4300
147.9594
147.4898
147.0209
146.5527
146.0850
145.6179
145.1512
144.6848
144.2188
143.7530
143.2874
142.8221
142.3569
141.8919
141.4270
140.9622
140.4974
140.0328
139.5683
139.1038
138.6393
138.1749
137.7106
137.2462
136.7819
136.3177
135.8534
135.3892
134.9250
134.4608
133.9966
133.5325
133.0683
132.6041
132.1400
131.6759
131.2117
130.7476
130.2835
129.8194
129.3552
128.8911
128.4270
127.9629
127.4988
127.0347
126.5706
126.1065
125.6424
125.1783
124.7142
124.2501
123.7860
123.3219
122.8578
122.3937
121.9296
121.4655
121.0014
120.5373
120.0732
119.6091
119.1450
118.6810
118.2169
117.7528
117.2887
116.8246
116.3605
115.8964
115.4323
114.9682
114.5041
114.0400
113.5759
113.1118
112.6477
112.1837
111.7196
111.2555
110.7914
110.3273
109.8632
109.3991
108.9350
108.4709
108.0068
107.5427
107.0786
106.6145
106.1504
105.6864
105.2223
104.7582
104.2941
103.8300
103.3659
102.9018
102.4377
101.9736
101.5095
101.0454
100.5813
100.1172
99.6531
99.1891
98.7250
98.2609
97.7968
97.3327
96.8686
96.4045
95.9404
95.4763
95.0122
94.5481
94.0840
93.6199
93.1559
92.6918
92.2277
91.7636
91.2995
90.8354
90.3713
89.9072
89.4431
88.9790
88.5149
88.0508
87.5867
87.1226
86.6586
86.1945
85.7304
85.2663
84.8022
84.3381
83.8740
83.4099
82.9458
82.4817
82.0176
81.5535
81.0894
80.6253
80.1613
79.6972
79.2331
78.7690
78.3049
77.8408
77.3767
76.9126
76.4485
75.9844
75.5203
75.0562
74.5921
74.1280
73.6639
73.1998
72.7357
72.2716
71.8076
71.3435
70.8794
70.4153
69.9512
69.4871
69.0230
68.5589
68.0948
67.6307
67.1666
66.7025
66.2384
65.7743
65.3101
64.8460
64.3819
63.9178
63.4537
62.9896
62.5255
62.0614
61.5973
61.1332
60.6691
60.2050
59.7408
59.2767
58.8126
58.3485
57.8844
57.4203
56.9562
56.4921
56.0280
55.5639
55.0998
54.6357
54.1716
53.7075
53.2434
52.7794
52.3153
51.8513
51.3873
50.9233
50.4593
49.9953
49.5314
49.0674
48.6035
48.1397
47.6759
47.2121
46.7484
46.2847
45.8211
45.3575
44.8940
44.4306
43.9673
43.5041
43.0410
42.5780
42.1152
41.6524
41.1899
40.7275
40.2652
39.8032
39.3414
38.8798
38.4185
37.9574
37.4967
37.0362
36.5761
36.1164
35.6572
35.1984
34.7401
34.2825
33.8258
33.3701
32.9158
32.4636
32.0147
31.5708
31.1350
30.7128
30.3130
29.9514
29.6543
29.4670
166.7647
166.7647
167.6840
169.9065
173.5371
177.8163
180.8927
182.1462
181.8447
180.5144
178.6248
176.5061
174.3618
172.3045
170.3889
168.6348
167.0428
165.6029
164.3009
163.1209
162.0471
161.0649
160.1612
159.3244
158.5444
157.8125
157.1213
156.4645
155.8369
155.2339
154.6517
154.0871
153.5374
153.0004
152.4740
151.9567
151.4472
150.9442
150.4468
149.9541
149.4655
148.9803
148.4981
148.0185
147.5410
147.0653
146.5912
146.1186
145.6470
145.1765
144.7069
144.2380
143.7697
143.3020
142.8348
142.3680
141.9015
141.4354
140.9695
140.5039
140.0385
139.5732
139.1081
138.6431
138.1782
137.7135
137.2488
136.7842
136.3196
135.8551
135.3907
134.9263
134.4620
133.9976
133.5333
133.0691
132.6048
132.1406
131.6764
131.2122
130.7480
130.2838
129.8197
129.3555
128.8914
128.4272
127.9631
127.4990
127.0348
126.5707
126.1066
125.6425
125.1784
124.7143
124.2502
123.7861
123.3220
122.8579
122.3938
121.9297
121.4656
121.0015
120.5374
120.0733
119.6092
119.1451
118.6810
118.2169
117.7528
117.2887
116.8246
116.3605
115.8964
115.4323
114.9682
114.5041
114.0400
113.5759
113.1118
112.6477
112.1837
111.7196
111.2555
110.7914
110.3273
109.8632
109.3991
108.9350
108.4709
108.0068
107.5427
107.0786
106.6145
106.1504
105.6864
105.2223
104.7582
104.2941
103.8300
103.3659
102.9018
102.4377
101.9736
101.5095
101.0454
100.5813
100.1172
99.6531
99.1891
98.7250
98.2609
97.7968
97.3327
96.8686
96.4045
95.9404
95.4763
95.0122
94.5481
94.0840
93.6199
93.1559
92.6918
92.2277
91.7636
91.2995
90.8354
90.3713
89.9072
89.4431
88.9790
88.5149
88.0508
87.5867
87.1226
86.6586
86.1945
85.7304
85.2663
84.8022
84.3381
83.8740
83.4099
82.9458
82.4817
82.0176
81.5535
81.0894
80.6253
80.1613
79.6972
79.2331
78.7690
78.3049
77.8408
77.3767
76.9126
76.4485
75.9844
75.5203
75.0562
74.5921
74.1280
73.6639
73.1998
72.7357
72.2716
71.8076
71.3435
70.8794
70.4153
69.9512
69.4871
69.0230
68.5589
68.0948
67.6307
67.1666
66.7025
66.2384
65.7743
65.3101
64.8460
64.3819
63.9178
63.4537
62.9896
62.5255
62.0614
61.5973
61.1332
60.6691
60.2050
59.7408
59.2767
58.8126
58.3485
57.8844
57.4203
56.9562
56.4921
56.0280
55.5639
55.0998
54.6357
54.1716
53.7075
53.2434
52.7794
52.3153
51.8513
51.3873
50.9233
50.4593
49.9953
49.5314
49.0674
48.6035
48.1397
47.6759
47.2121
46.7484
46.2847
45.8211
45.3575
44.8940
44.4306
43.9673
43.5041
43.0410
42.5780
42.1152
41.6524
41.1899
40.7275
40.2652
39.8032
39.3414
38.8798
38.4185
37.9574
37.4967
37.0362
36.5761
36.1164
35.6572
35.1984
34.7401
34.2825
33.8258
33.3701
32.9158
32.4636
32.0147
31.5708
31.1350
30.7128
30.3130
29.9514
29.6543
29.4670
174.2879
174.2879
176.3579
181.5698
190.5620
201.3393
206.7226
206.8389
203.7832
199.3006
194.4375
189.7256
185.3967
181.5255
178.1107
175.1174
172.4987
170.2058
168.1926
166.4178
164.8453
163.4438
162.1866
161.0513
160.0187
159.0727
158.1998
157.3885
156.6294
155.9142
155.2363
154.5899
153.9703
153.3733
152.7956
152.2343
151.6869
151.1514
150.6260
150.1092
149.5998
149.0967
148.5991
148.1061
147.6170
147.1314
146.6487
146.1685
145.6905
145.2144
144.7398
144.2667
143.7948
143.3239
142.8539
142.3846
141.9161
141.4481
140.9806
140.5136
140.0469
139.5806
139.1146
138.6488
138.1832
137.7178
137.2526
136.7875
136.3226
135.8577
135.3930
134.9283
134.4637
133.9992
133.5347
133.0703
132.6059
132.1415
131.6772
131.2129
130.7486
130.2844
129.8202
129.3559
128.8917
128.4276
127.9634
127.4992
127.0351
126.5709
126.1068
125.6426
125.1785
124.7144
124.2503
123.7862
123.3220
122.8579
122.3938
121.9297
121.4656
121.0015
120.5374
120.0733
119.6092
119.1451
118.6810
118.2169
117.7528
117.2887
116.8246
116.3605
115.8964
115.4323
114.9682
114.5041
114.0400
113.5759
113.1118
112.6478
112.1837
111.7196
111.2555
110.7914
110.3273
109.8632
109.3991
108.9350
108.4709
108.0068
107.5427
107.0786
106.6145
106.1504
105.6864
105.2223
104.7582
104.2941
103.8300
103.3659
102.9018
102.4377
101.9736
101.5095
101.0454
100.5813
100.1172
99.6531
99.1891
98.7250
98.2609
97.7968
97.3327
96.8686
96.4045
95.9404
95.4763
95.0122
94.5481
94.0840
93.6199
93.1559
92.6918
92.2277
91.7636
91.2995
90.8354
90.3713
89.9072
89.4431
88.9790
88.5149
88.0508
87.5867
87.1226
86.6586
86.1945
85.7304
85.2663
84.8022
84.3381
83.8740
83.4099
82.9458
82.4817
82.0176
81.5535
81.0894
80.6253
80.1613
79.6972
79.2331
78.7690
78.3049
77.8408
77.3767
76.9126
76.4485
75.9844
75.5203
75.0562
74.5921
74.1280
73.6639
73.1998
72.7357
72.2716
71.8076
71.3435
70.8794
70.4153
69.9512
69.4871
69.0230
68.5589
68.0948
67.6307
67.1666
66.7025
66.2384
65.7743
65.3101
64.8460
64.3819
63.9178
63.4537
62.9896
62.5255
62.0614
61.5973
61.1332
60.6691
60.2050
59.7408
59.2767
58.8126
58.3485
57.8844
57.4203